integrator              = md
dt                      = 0.002
nsteps                  = 500000
nstxout-compressed      = 500
compressed-x-precision  = 100000
nstxout                 = 0
nstvout                 = 0
nstfout                 = 0
nstcalcenergy           = 100
nstenergy               = 5000
nstlog                  = 5000
;
cutoff-scheme           = Verlet
nstlist                 = 20
rlist                   = 1.2
vdwtype                 = Cut-off
vdw-modifier            = Force-switch
rvdw_switch             = 1.0
rvdw                    = 1.2
coulombtype             = PME
rcoulomb                = 1.2
;
tcoupl                  = v-rescale
tc_grps                 = MEMB SOLV
tau_t                   = 1.0 1.0
ref_t                   = 323.15 323.15
;
pcoupl                  = no
;
constraints             = h-bonds
constraint_algorithm    = LINCS
continuation            = yes
;
nstcomm                 = 100
comm_mode               = linear
comm_grps               = MEMB SOLV

