PSF EXT CMAP XPLOR

         2 !NTITLE
* GENERATED BY CHARMM-GUI FF-Converter
* DATE:   12/05/25   08:26:01

     23680 !NATOM
         1 MEMB     1        DPPC     N        NTL     -0.600000       14.0070           0
         2 MEMB     1        DPPC     C13      CTL5    -0.350000       12.0110           0
         3 MEMB     1        DPPC     H13A     HL       0.250000       1.00800           0
         4 MEMB     1        DPPC     H13B     HL       0.250000       1.00800           0
         5 MEMB     1        DPPC     H13C     HL       0.250000       1.00800           0
         6 MEMB     1        DPPC     C14      CTL5    -0.350000       12.0110           0
         7 MEMB     1        DPPC     H14A     HL       0.250000       1.00800           0
         8 MEMB     1        DPPC     H14B     HL       0.250000       1.00800           0
         9 MEMB     1        DPPC     H14C     HL       0.250000       1.00800           0
        10 MEMB     1        DPPC     C15      CTL5    -0.350000       12.0110           0
        11 MEMB     1        DPPC     H15A     HL       0.250000       1.00800           0
        12 MEMB     1        DPPC     H15B     HL       0.250000       1.00800           0
        13 MEMB     1        DPPC     H15C     HL       0.250000       1.00800           0
        14 MEMB     1        DPPC     C12      CTL2    -0.100000       12.0110           0
        15 MEMB     1        DPPC     H12A     HL       0.250000       1.00800           0
        16 MEMB     1        DPPC     H12B     HL       0.250000       1.00800           0
        17 MEMB     1        DPPC     C11      CTL2    -0.800000E-01   12.0110           0
        18 MEMB     1        DPPC     H11A     HAL2     0.900000E-01   1.00800           0
        19 MEMB     1        DPPC     H11B     HAL2     0.900000E-01   1.00800           0
        20 MEMB     1        DPPC     P        PL       1.500000       30.9740           0
        21 MEMB     1        DPPC     O13      O2L     -0.780000       15.9994           0
        22 MEMB     1        DPPC     O14      O2L     -0.780000       15.9994           0
        23 MEMB     1        DPPC     O11      OSLP    -0.570000       15.9994           0
        24 MEMB     1        DPPC     O12      OSLP    -0.570000       15.9994           0
        25 MEMB     1        DPPC     C1       CTL2    -0.800000E-01   12.0110           0
        26 MEMB     1        DPPC     HA       HAL2     0.900000E-01   1.00800           0
        27 MEMB     1        DPPC     HB       HAL2     0.900000E-01   1.00800           0
        28 MEMB     1        DPPC     C2       CTL1     0.170000       12.0110           0
        29 MEMB     1        DPPC     HS       HAL1     0.900000E-01   1.00800           0
        30 MEMB     1        DPPC     O21      OSL     -0.490000       15.9994           0
        31 MEMB     1        DPPC     C21      CL       0.900000       12.0110           0
        32 MEMB     1        DPPC     O22      OBL     -0.630000       15.9994           0
        33 MEMB     1        DPPC     C22      CTL2    -0.220000       12.0110           0
        34 MEMB     1        DPPC     H2R      HAL2     0.900000E-01   1.00800           0
        35 MEMB     1        DPPC     H2S      HAL2     0.900000E-01   1.00800           0
        36 MEMB     1        DPPC     C3       CTL2     0.800000E-01   12.0110           0
        37 MEMB     1        DPPC     HX       HAL2     0.900000E-01   1.00800           0
        38 MEMB     1        DPPC     HY       HAL2     0.900000E-01   1.00800           0
        39 MEMB     1        DPPC     O31      OSL     -0.490000       15.9994           0
        40 MEMB     1        DPPC     C31      CL       0.900000       12.0110           0
        41 MEMB     1        DPPC     O32      OBL     -0.630000       15.9994           0
        42 MEMB     1        DPPC     C32      CTL2    -0.220000       12.0110           0
        43 MEMB     1        DPPC     H2X      HAL2     0.900000E-01   1.00800           0
        44 MEMB     1        DPPC     H2Y      HAL2     0.900000E-01   1.00800           0
        45 MEMB     1        DPPC     C23      CTL2    -0.180000       12.0110           0
        46 MEMB     1        DPPC     H3R      HAL2     0.900000E-01   1.00800           0
        47 MEMB     1        DPPC     H3S      HAL2     0.900000E-01   1.00800           0
        48 MEMB     1        DPPC     C24      CTL2    -0.180000       12.0110           0
        49 MEMB     1        DPPC     H4R      HAL2     0.900000E-01   1.00800           0
        50 MEMB     1        DPPC     H4S      HAL2     0.900000E-01   1.00800           0
        51 MEMB     1        DPPC     C25      CTL2    -0.180000       12.0110           0
        52 MEMB     1        DPPC     H5R      HAL2     0.900000E-01   1.00800           0
        53 MEMB     1        DPPC     H5S      HAL2     0.900000E-01   1.00800           0
        54 MEMB     1        DPPC     C26      CTL2    -0.180000       12.0110           0
        55 MEMB     1        DPPC     H6R      HAL2     0.900000E-01   1.00800           0
        56 MEMB     1        DPPC     H6S      HAL2     0.900000E-01   1.00800           0
        57 MEMB     1        DPPC     C27      CTL2    -0.180000       12.0110           0
        58 MEMB     1        DPPC     H7R      HAL2     0.900000E-01   1.00800           0
        59 MEMB     1        DPPC     H7S      HAL2     0.900000E-01   1.00800           0
        60 MEMB     1        DPPC     C28      CTL2    -0.180000       12.0110           0
        61 MEMB     1        DPPC     H8R      HAL2     0.900000E-01   1.00800           0
        62 MEMB     1        DPPC     H8S      HAL2     0.900000E-01   1.00800           0
        63 MEMB     1        DPPC     C29      CTL2    -0.180000       12.0110           0
        64 MEMB     1        DPPC     H9R      HAL2     0.900000E-01   1.00800           0
        65 MEMB     1        DPPC     H9S      HAL2     0.900000E-01   1.00800           0
        66 MEMB     1        DPPC     C210     CTL2    -0.180000       12.0110           0
        67 MEMB     1        DPPC     H10R     HAL2     0.900000E-01   1.00800           0
        68 MEMB     1        DPPC     H10S     HAL2     0.900000E-01   1.00800           0
        69 MEMB     1        DPPC     C211     CTL2    -0.180000       12.0110           0
        70 MEMB     1        DPPC     H11R     HAL2     0.900000E-01   1.00800           0
        71 MEMB     1        DPPC     H11S     HAL2     0.900000E-01   1.00800           0
        72 MEMB     1        DPPC     C212     CTL2    -0.180000       12.0110           0
        73 MEMB     1        DPPC     H12R     HAL2     0.900000E-01   1.00800           0
        74 MEMB     1        DPPC     H12S     HAL2     0.900000E-01   1.00800           0
        75 MEMB     1        DPPC     C213     CTL2    -0.180000       12.0110           0
        76 MEMB     1        DPPC     H13R     HAL2     0.900000E-01   1.00800           0
        77 MEMB     1        DPPC     H13S     HAL2     0.900000E-01   1.00800           0
        78 MEMB     1        DPPC     C214     CTL2    -0.180000       12.0110           0
        79 MEMB     1        DPPC     H14R     HAL2     0.900000E-01   1.00800           0
        80 MEMB     1        DPPC     H14S     HAL2     0.900000E-01   1.00800           0
        81 MEMB     1        DPPC     C215     CTL2    -0.180000       12.0110           0
        82 MEMB     1        DPPC     H15R     HAL2     0.900000E-01   1.00800           0
        83 MEMB     1        DPPC     H15S     HAL2     0.900000E-01   1.00800           0
        84 MEMB     1        DPPC     C216     CTL3    -0.270000       12.0110           0
        85 MEMB     1        DPPC     H16R     HAL3     0.900000E-01   1.00800           0
        86 MEMB     1        DPPC     H16S     HAL3     0.900000E-01   1.00800           0
        87 MEMB     1        DPPC     H16T     HAL3     0.900000E-01   1.00800           0
        88 MEMB     1        DPPC     C33      CTL2    -0.180000       12.0110           0
        89 MEMB     1        DPPC     H3X      HAL2     0.900000E-01   1.00800           0
        90 MEMB     1        DPPC     H3Y      HAL2     0.900000E-01   1.00800           0
        91 MEMB     1        DPPC     C34      CTL2    -0.180000       12.0110           0
        92 MEMB     1        DPPC     H4X      HAL2     0.900000E-01   1.00800           0
        93 MEMB     1        DPPC     H4Y      HAL2     0.900000E-01   1.00800           0
        94 MEMB     1        DPPC     C35      CTL2    -0.180000       12.0110           0
        95 MEMB     1        DPPC     H5X      HAL2     0.900000E-01   1.00800           0
        96 MEMB     1        DPPC     H5Y      HAL2     0.900000E-01   1.00800           0
        97 MEMB     1        DPPC     C36      CTL2    -0.180000       12.0110           0
        98 MEMB     1        DPPC     H6X      HAL2     0.900000E-01   1.00800           0
        99 MEMB     1        DPPC     H6Y      HAL2     0.900000E-01   1.00800           0
       100 MEMB     1        DPPC     C37      CTL2    -0.180000       12.0110           0
       101 MEMB     1        DPPC     H7X      HAL2     0.900000E-01   1.00800           0
       102 MEMB     1        DPPC     H7Y      HAL2     0.900000E-01   1.00800           0
       103 MEMB     1        DPPC     C38      CTL2    -0.180000       12.0110           0
       104 MEMB     1        DPPC     H8X      HAL2     0.900000E-01   1.00800           0
       105 MEMB     1        DPPC     H8Y      HAL2     0.900000E-01   1.00800           0
       106 MEMB     1        DPPC     C39      CTL2    -0.180000       12.0110           0
       107 MEMB     1        DPPC     H9X      HAL2     0.900000E-01   1.00800           0
       108 MEMB     1        DPPC     H9Y      HAL2     0.900000E-01   1.00800           0
       109 MEMB     1        DPPC     C310     CTL2    -0.180000       12.0110           0
       110 MEMB     1        DPPC     H10X     HAL2     0.900000E-01   1.00800           0
       111 MEMB     1        DPPC     H10Y     HAL2     0.900000E-01   1.00800           0
       112 MEMB     1        DPPC     C311     CTL2    -0.180000       12.0110           0
       113 MEMB     1        DPPC     H11X     HAL2     0.900000E-01   1.00800           0
       114 MEMB     1        DPPC     H11Y     HAL2     0.900000E-01   1.00800           0
       115 MEMB     1        DPPC     C312     CTL2    -0.180000       12.0110           0
       116 MEMB     1        DPPC     H12X     HAL2     0.900000E-01   1.00800           0
       117 MEMB     1        DPPC     H12Y     HAL2     0.900000E-01   1.00800           0
       118 MEMB     1        DPPC     C313     CTL2    -0.180000       12.0110           0
       119 MEMB     1        DPPC     H13X     HAL2     0.900000E-01   1.00800           0
       120 MEMB     1        DPPC     H13Y     HAL2     0.900000E-01   1.00800           0
       121 MEMB     1        DPPC     C314     CTL2    -0.180000       12.0110           0
       122 MEMB     1        DPPC     H14X     HAL2     0.900000E-01   1.00800           0
       123 MEMB     1        DPPC     H14Y     HAL2     0.900000E-01   1.00800           0
       124 MEMB     1        DPPC     C315     CTL2    -0.180000       12.0110           0
       125 MEMB     1        DPPC     H15X     HAL2     0.900000E-01   1.00800           0
       126 MEMB     1        DPPC     H15Y     HAL2     0.900000E-01   1.00800           0
       127 MEMB     1        DPPC     C316     CTL3    -0.270000       12.0110           0
       128 MEMB     1        DPPC     H16X     HAL3     0.900000E-01   1.00800           0
       129 MEMB     1        DPPC     H16Y     HAL3     0.900000E-01   1.00800           0
       130 MEMB     1        DPPC     H16Z     HAL3     0.900000E-01   1.00800           0
       131 MEMB     2        DPPC     N        NTL     -0.600000       14.0070           0
       132 MEMB     2        DPPC     C13      CTL5    -0.350000       12.0110           0
       133 MEMB     2        DPPC     H13A     HL       0.250000       1.00800           0
       134 MEMB     2        DPPC     H13B     HL       0.250000       1.00800           0
       135 MEMB     2        DPPC     H13C     HL       0.250000       1.00800           0
       136 MEMB     2        DPPC     C14      CTL5    -0.350000       12.0110           0
       137 MEMB     2        DPPC     H14A     HL       0.250000       1.00800           0
       138 MEMB     2        DPPC     H14B     HL       0.250000       1.00800           0
       139 MEMB     2        DPPC     H14C     HL       0.250000       1.00800           0
       140 MEMB     2        DPPC     C15      CTL5    -0.350000       12.0110           0
       141 MEMB     2        DPPC     H15A     HL       0.250000       1.00800           0
       142 MEMB     2        DPPC     H15B     HL       0.250000       1.00800           0
       143 MEMB     2        DPPC     H15C     HL       0.250000       1.00800           0
       144 MEMB     2        DPPC     C12      CTL2    -0.100000       12.0110           0
       145 MEMB     2        DPPC     H12A     HL       0.250000       1.00800           0
       146 MEMB     2        DPPC     H12B     HL       0.250000       1.00800           0
       147 MEMB     2        DPPC     C11      CTL2    -0.800000E-01   12.0110           0
       148 MEMB     2        DPPC     H11A     HAL2     0.900000E-01   1.00800           0
       149 MEMB     2        DPPC     H11B     HAL2     0.900000E-01   1.00800           0
       150 MEMB     2        DPPC     P        PL       1.500000       30.9740           0
       151 MEMB     2        DPPC     O13      O2L     -0.780000       15.9994           0
       152 MEMB     2        DPPC     O14      O2L     -0.780000       15.9994           0
       153 MEMB     2        DPPC     O11      OSLP    -0.570000       15.9994           0
       154 MEMB     2        DPPC     O12      OSLP    -0.570000       15.9994           0
       155 MEMB     2        DPPC     C1       CTL2    -0.800000E-01   12.0110           0
       156 MEMB     2        DPPC     HA       HAL2     0.900000E-01   1.00800           0
       157 MEMB     2        DPPC     HB       HAL2     0.900000E-01   1.00800           0
       158 MEMB     2        DPPC     C2       CTL1     0.170000       12.0110           0
       159 MEMB     2        DPPC     HS       HAL1     0.900000E-01   1.00800           0
       160 MEMB     2        DPPC     O21      OSL     -0.490000       15.9994           0
       161 MEMB     2        DPPC     C21      CL       0.900000       12.0110           0
       162 MEMB     2        DPPC     O22      OBL     -0.630000       15.9994           0
       163 MEMB     2        DPPC     C22      CTL2    -0.220000       12.0110           0
       164 MEMB     2        DPPC     H2R      HAL2     0.900000E-01   1.00800           0
       165 MEMB     2        DPPC     H2S      HAL2     0.900000E-01   1.00800           0
       166 MEMB     2        DPPC     C3       CTL2     0.800000E-01   12.0110           0
       167 MEMB     2        DPPC     HX       HAL2     0.900000E-01   1.00800           0
       168 MEMB     2        DPPC     HY       HAL2     0.900000E-01   1.00800           0
       169 MEMB     2        DPPC     O31      OSL     -0.490000       15.9994           0
       170 MEMB     2        DPPC     C31      CL       0.900000       12.0110           0
       171 MEMB     2        DPPC     O32      OBL     -0.630000       15.9994           0
       172 MEMB     2        DPPC     C32      CTL2    -0.220000       12.0110           0
       173 MEMB     2        DPPC     H2X      HAL2     0.900000E-01   1.00800           0
       174 MEMB     2        DPPC     H2Y      HAL2     0.900000E-01   1.00800           0
       175 MEMB     2        DPPC     C23      CTL2    -0.180000       12.0110           0
       176 MEMB     2        DPPC     H3R      HAL2     0.900000E-01   1.00800           0
       177 MEMB     2        DPPC     H3S      HAL2     0.900000E-01   1.00800           0
       178 MEMB     2        DPPC     C24      CTL2    -0.180000       12.0110           0
       179 MEMB     2        DPPC     H4R      HAL2     0.900000E-01   1.00800           0
       180 MEMB     2        DPPC     H4S      HAL2     0.900000E-01   1.00800           0
       181 MEMB     2        DPPC     C25      CTL2    -0.180000       12.0110           0
       182 MEMB     2        DPPC     H5R      HAL2     0.900000E-01   1.00800           0
       183 MEMB     2        DPPC     H5S      HAL2     0.900000E-01   1.00800           0
       184 MEMB     2        DPPC     C26      CTL2    -0.180000       12.0110           0
       185 MEMB     2        DPPC     H6R      HAL2     0.900000E-01   1.00800           0
       186 MEMB     2        DPPC     H6S      HAL2     0.900000E-01   1.00800           0
       187 MEMB     2        DPPC     C27      CTL2    -0.180000       12.0110           0
       188 MEMB     2        DPPC     H7R      HAL2     0.900000E-01   1.00800           0
       189 MEMB     2        DPPC     H7S      HAL2     0.900000E-01   1.00800           0
       190 MEMB     2        DPPC     C28      CTL2    -0.180000       12.0110           0
       191 MEMB     2        DPPC     H8R      HAL2     0.900000E-01   1.00800           0
       192 MEMB     2        DPPC     H8S      HAL2     0.900000E-01   1.00800           0
       193 MEMB     2        DPPC     C29      CTL2    -0.180000       12.0110           0
       194 MEMB     2        DPPC     H9R      HAL2     0.900000E-01   1.00800           0
       195 MEMB     2        DPPC     H9S      HAL2     0.900000E-01   1.00800           0
       196 MEMB     2        DPPC     C210     CTL2    -0.180000       12.0110           0
       197 MEMB     2        DPPC     H10R     HAL2     0.900000E-01   1.00800           0
       198 MEMB     2        DPPC     H10S     HAL2     0.900000E-01   1.00800           0
       199 MEMB     2        DPPC     C211     CTL2    -0.180000       12.0110           0
       200 MEMB     2        DPPC     H11R     HAL2     0.900000E-01   1.00800           0
       201 MEMB     2        DPPC     H11S     HAL2     0.900000E-01   1.00800           0
       202 MEMB     2        DPPC     C212     CTL2    -0.180000       12.0110           0
       203 MEMB     2        DPPC     H12R     HAL2     0.900000E-01   1.00800           0
       204 MEMB     2        DPPC     H12S     HAL2     0.900000E-01   1.00800           0
       205 MEMB     2        DPPC     C213     CTL2    -0.180000       12.0110           0
       206 MEMB     2        DPPC     H13R     HAL2     0.900000E-01   1.00800           0
       207 MEMB     2        DPPC     H13S     HAL2     0.900000E-01   1.00800           0
       208 MEMB     2        DPPC     C214     CTL2    -0.180000       12.0110           0
       209 MEMB     2        DPPC     H14R     HAL2     0.900000E-01   1.00800           0
       210 MEMB     2        DPPC     H14S     HAL2     0.900000E-01   1.00800           0
       211 MEMB     2        DPPC     C215     CTL2    -0.180000       12.0110           0
       212 MEMB     2        DPPC     H15R     HAL2     0.900000E-01   1.00800           0
       213 MEMB     2        DPPC     H15S     HAL2     0.900000E-01   1.00800           0
       214 MEMB     2        DPPC     C216     CTL3    -0.270000       12.0110           0
       215 MEMB     2        DPPC     H16R     HAL3     0.900000E-01   1.00800           0
       216 MEMB     2        DPPC     H16S     HAL3     0.900000E-01   1.00800           0
       217 MEMB     2        DPPC     H16T     HAL3     0.900000E-01   1.00800           0
       218 MEMB     2        DPPC     C33      CTL2    -0.180000       12.0110           0
       219 MEMB     2        DPPC     H3X      HAL2     0.900000E-01   1.00800           0
       220 MEMB     2        DPPC     H3Y      HAL2     0.900000E-01   1.00800           0
       221 MEMB     2        DPPC     C34      CTL2    -0.180000       12.0110           0
       222 MEMB     2        DPPC     H4X      HAL2     0.900000E-01   1.00800           0
       223 MEMB     2        DPPC     H4Y      HAL2     0.900000E-01   1.00800           0
       224 MEMB     2        DPPC     C35      CTL2    -0.180000       12.0110           0
       225 MEMB     2        DPPC     H5X      HAL2     0.900000E-01   1.00800           0
       226 MEMB     2        DPPC     H5Y      HAL2     0.900000E-01   1.00800           0
       227 MEMB     2        DPPC     C36      CTL2    -0.180000       12.0110           0
       228 MEMB     2        DPPC     H6X      HAL2     0.900000E-01   1.00800           0
       229 MEMB     2        DPPC     H6Y      HAL2     0.900000E-01   1.00800           0
       230 MEMB     2        DPPC     C37      CTL2    -0.180000       12.0110           0
       231 MEMB     2        DPPC     H7X      HAL2     0.900000E-01   1.00800           0
       232 MEMB     2        DPPC     H7Y      HAL2     0.900000E-01   1.00800           0
       233 MEMB     2        DPPC     C38      CTL2    -0.180000       12.0110           0
       234 MEMB     2        DPPC     H8X      HAL2     0.900000E-01   1.00800           0
       235 MEMB     2        DPPC     H8Y      HAL2     0.900000E-01   1.00800           0
       236 MEMB     2        DPPC     C39      CTL2    -0.180000       12.0110           0
       237 MEMB     2        DPPC     H9X      HAL2     0.900000E-01   1.00800           0
       238 MEMB     2        DPPC     H9Y      HAL2     0.900000E-01   1.00800           0
       239 MEMB     2        DPPC     C310     CTL2    -0.180000       12.0110           0
       240 MEMB     2        DPPC     H10X     HAL2     0.900000E-01   1.00800           0
       241 MEMB     2        DPPC     H10Y     HAL2     0.900000E-01   1.00800           0
       242 MEMB     2        DPPC     C311     CTL2    -0.180000       12.0110           0
       243 MEMB     2        DPPC     H11X     HAL2     0.900000E-01   1.00800           0
       244 MEMB     2        DPPC     H11Y     HAL2     0.900000E-01   1.00800           0
       245 MEMB     2        DPPC     C312     CTL2    -0.180000       12.0110           0
       246 MEMB     2        DPPC     H12X     HAL2     0.900000E-01   1.00800           0
       247 MEMB     2        DPPC     H12Y     HAL2     0.900000E-01   1.00800           0
       248 MEMB     2        DPPC     C313     CTL2    -0.180000       12.0110           0
       249 MEMB     2        DPPC     H13X     HAL2     0.900000E-01   1.00800           0
       250 MEMB     2        DPPC     H13Y     HAL2     0.900000E-01   1.00800           0
       251 MEMB     2        DPPC     C314     CTL2    -0.180000       12.0110           0
       252 MEMB     2        DPPC     H14X     HAL2     0.900000E-01   1.00800           0
       253 MEMB     2        DPPC     H14Y     HAL2     0.900000E-01   1.00800           0
       254 MEMB     2        DPPC     C315     CTL2    -0.180000       12.0110           0
       255 MEMB     2        DPPC     H15X     HAL2     0.900000E-01   1.00800           0
       256 MEMB     2        DPPC     H15Y     HAL2     0.900000E-01   1.00800           0
       257 MEMB     2        DPPC     C316     CTL3    -0.270000       12.0110           0
       258 MEMB     2        DPPC     H16X     HAL3     0.900000E-01   1.00800           0
       259 MEMB     2        DPPC     H16Y     HAL3     0.900000E-01   1.00800           0
       260 MEMB     2        DPPC     H16Z     HAL3     0.900000E-01   1.00800           0
       261 MEMB     3        DPPC     N        NTL     -0.600000       14.0070           0
       262 MEMB     3        DPPC     C13      CTL5    -0.350000       12.0110           0
       263 MEMB     3        DPPC     H13A     HL       0.250000       1.00800           0
       264 MEMB     3        DPPC     H13B     HL       0.250000       1.00800           0
       265 MEMB     3        DPPC     H13C     HL       0.250000       1.00800           0
       266 MEMB     3        DPPC     C14      CTL5    -0.350000       12.0110           0
       267 MEMB     3        DPPC     H14A     HL       0.250000       1.00800           0
       268 MEMB     3        DPPC     H14B     HL       0.250000       1.00800           0
       269 MEMB     3        DPPC     H14C     HL       0.250000       1.00800           0
       270 MEMB     3        DPPC     C15      CTL5    -0.350000       12.0110           0
       271 MEMB     3        DPPC     H15A     HL       0.250000       1.00800           0
       272 MEMB     3        DPPC     H15B     HL       0.250000       1.00800           0
       273 MEMB     3        DPPC     H15C     HL       0.250000       1.00800           0
       274 MEMB     3        DPPC     C12      CTL2    -0.100000       12.0110           0
       275 MEMB     3        DPPC     H12A     HL       0.250000       1.00800           0
       276 MEMB     3        DPPC     H12B     HL       0.250000       1.00800           0
       277 MEMB     3        DPPC     C11      CTL2    -0.800000E-01   12.0110           0
       278 MEMB     3        DPPC     H11A     HAL2     0.900000E-01   1.00800           0
       279 MEMB     3        DPPC     H11B     HAL2     0.900000E-01   1.00800           0
       280 MEMB     3        DPPC     P        PL       1.500000       30.9740           0
       281 MEMB     3        DPPC     O13      O2L     -0.780000       15.9994           0
       282 MEMB     3        DPPC     O14      O2L     -0.780000       15.9994           0
       283 MEMB     3        DPPC     O11      OSLP    -0.570000       15.9994           0
       284 MEMB     3        DPPC     O12      OSLP    -0.570000       15.9994           0
       285 MEMB     3        DPPC     C1       CTL2    -0.800000E-01   12.0110           0
       286 MEMB     3        DPPC     HA       HAL2     0.900000E-01   1.00800           0
       287 MEMB     3        DPPC     HB       HAL2     0.900000E-01   1.00800           0
       288 MEMB     3        DPPC     C2       CTL1     0.170000       12.0110           0
       289 MEMB     3        DPPC     HS       HAL1     0.900000E-01   1.00800           0
       290 MEMB     3        DPPC     O21      OSL     -0.490000       15.9994           0
       291 MEMB     3        DPPC     C21      CL       0.900000       12.0110           0
       292 MEMB     3        DPPC     O22      OBL     -0.630000       15.9994           0
       293 MEMB     3        DPPC     C22      CTL2    -0.220000       12.0110           0
       294 MEMB     3        DPPC     H2R      HAL2     0.900000E-01   1.00800           0
       295 MEMB     3        DPPC     H2S      HAL2     0.900000E-01   1.00800           0
       296 MEMB     3        DPPC     C3       CTL2     0.800000E-01   12.0110           0
       297 MEMB     3        DPPC     HX       HAL2     0.900000E-01   1.00800           0
       298 MEMB     3        DPPC     HY       HAL2     0.900000E-01   1.00800           0
       299 MEMB     3        DPPC     O31      OSL     -0.490000       15.9994           0
       300 MEMB     3        DPPC     C31      CL       0.900000       12.0110           0
       301 MEMB     3        DPPC     O32      OBL     -0.630000       15.9994           0
       302 MEMB     3        DPPC     C32      CTL2    -0.220000       12.0110           0
       303 MEMB     3        DPPC     H2X      HAL2     0.900000E-01   1.00800           0
       304 MEMB     3        DPPC     H2Y      HAL2     0.900000E-01   1.00800           0
       305 MEMB     3        DPPC     C23      CTL2    -0.180000       12.0110           0
       306 MEMB     3        DPPC     H3R      HAL2     0.900000E-01   1.00800           0
       307 MEMB     3        DPPC     H3S      HAL2     0.900000E-01   1.00800           0
       308 MEMB     3        DPPC     C24      CTL2    -0.180000       12.0110           0
       309 MEMB     3        DPPC     H4R      HAL2     0.900000E-01   1.00800           0
       310 MEMB     3        DPPC     H4S      HAL2     0.900000E-01   1.00800           0
       311 MEMB     3        DPPC     C25      CTL2    -0.180000       12.0110           0
       312 MEMB     3        DPPC     H5R      HAL2     0.900000E-01   1.00800           0
       313 MEMB     3        DPPC     H5S      HAL2     0.900000E-01   1.00800           0
       314 MEMB     3        DPPC     C26      CTL2    -0.180000       12.0110           0
       315 MEMB     3        DPPC     H6R      HAL2     0.900000E-01   1.00800           0
       316 MEMB     3        DPPC     H6S      HAL2     0.900000E-01   1.00800           0
       317 MEMB     3        DPPC     C27      CTL2    -0.180000       12.0110           0
       318 MEMB     3        DPPC     H7R      HAL2     0.900000E-01   1.00800           0
       319 MEMB     3        DPPC     H7S      HAL2     0.900000E-01   1.00800           0
       320 MEMB     3        DPPC     C28      CTL2    -0.180000       12.0110           0
       321 MEMB     3        DPPC     H8R      HAL2     0.900000E-01   1.00800           0
       322 MEMB     3        DPPC     H8S      HAL2     0.900000E-01   1.00800           0
       323 MEMB     3        DPPC     C29      CTL2    -0.180000       12.0110           0
       324 MEMB     3        DPPC     H9R      HAL2     0.900000E-01   1.00800           0
       325 MEMB     3        DPPC     H9S      HAL2     0.900000E-01   1.00800           0
       326 MEMB     3        DPPC     C210     CTL2    -0.180000       12.0110           0
       327 MEMB     3        DPPC     H10R     HAL2     0.900000E-01   1.00800           0
       328 MEMB     3        DPPC     H10S     HAL2     0.900000E-01   1.00800           0
       329 MEMB     3        DPPC     C211     CTL2    -0.180000       12.0110           0
       330 MEMB     3        DPPC     H11R     HAL2     0.900000E-01   1.00800           0
       331 MEMB     3        DPPC     H11S     HAL2     0.900000E-01   1.00800           0
       332 MEMB     3        DPPC     C212     CTL2    -0.180000       12.0110           0
       333 MEMB     3        DPPC     H12R     HAL2     0.900000E-01   1.00800           0
       334 MEMB     3        DPPC     H12S     HAL2     0.900000E-01   1.00800           0
       335 MEMB     3        DPPC     C213     CTL2    -0.180000       12.0110           0
       336 MEMB     3        DPPC     H13R     HAL2     0.900000E-01   1.00800           0
       337 MEMB     3        DPPC     H13S     HAL2     0.900000E-01   1.00800           0
       338 MEMB     3        DPPC     C214     CTL2    -0.180000       12.0110           0
       339 MEMB     3        DPPC     H14R     HAL2     0.900000E-01   1.00800           0
       340 MEMB     3        DPPC     H14S     HAL2     0.900000E-01   1.00800           0
       341 MEMB     3        DPPC     C215     CTL2    -0.180000       12.0110           0
       342 MEMB     3        DPPC     H15R     HAL2     0.900000E-01   1.00800           0
       343 MEMB     3        DPPC     H15S     HAL2     0.900000E-01   1.00800           0
       344 MEMB     3        DPPC     C216     CTL3    -0.270000       12.0110           0
       345 MEMB     3        DPPC     H16R     HAL3     0.900000E-01   1.00800           0
       346 MEMB     3        DPPC     H16S     HAL3     0.900000E-01   1.00800           0
       347 MEMB     3        DPPC     H16T     HAL3     0.900000E-01   1.00800           0
       348 MEMB     3        DPPC     C33      CTL2    -0.180000       12.0110           0
       349 MEMB     3        DPPC     H3X      HAL2     0.900000E-01   1.00800           0
       350 MEMB     3        DPPC     H3Y      HAL2     0.900000E-01   1.00800           0
       351 MEMB     3        DPPC     C34      CTL2    -0.180000       12.0110           0
       352 MEMB     3        DPPC     H4X      HAL2     0.900000E-01   1.00800           0
       353 MEMB     3        DPPC     H4Y      HAL2     0.900000E-01   1.00800           0
       354 MEMB     3        DPPC     C35      CTL2    -0.180000       12.0110           0
       355 MEMB     3        DPPC     H5X      HAL2     0.900000E-01   1.00800           0
       356 MEMB     3        DPPC     H5Y      HAL2     0.900000E-01   1.00800           0
       357 MEMB     3        DPPC     C36      CTL2    -0.180000       12.0110           0
       358 MEMB     3        DPPC     H6X      HAL2     0.900000E-01   1.00800           0
       359 MEMB     3        DPPC     H6Y      HAL2     0.900000E-01   1.00800           0
       360 MEMB     3        DPPC     C37      CTL2    -0.180000       12.0110           0
       361 MEMB     3        DPPC     H7X      HAL2     0.900000E-01   1.00800           0
       362 MEMB     3        DPPC     H7Y      HAL2     0.900000E-01   1.00800           0
       363 MEMB     3        DPPC     C38      CTL2    -0.180000       12.0110           0
       364 MEMB     3        DPPC     H8X      HAL2     0.900000E-01   1.00800           0
       365 MEMB     3        DPPC     H8Y      HAL2     0.900000E-01   1.00800           0
       366 MEMB     3        DPPC     C39      CTL2    -0.180000       12.0110           0
       367 MEMB     3        DPPC     H9X      HAL2     0.900000E-01   1.00800           0
       368 MEMB     3        DPPC     H9Y      HAL2     0.900000E-01   1.00800           0
       369 MEMB     3        DPPC     C310     CTL2    -0.180000       12.0110           0
       370 MEMB     3        DPPC     H10X     HAL2     0.900000E-01   1.00800           0
       371 MEMB     3        DPPC     H10Y     HAL2     0.900000E-01   1.00800           0
       372 MEMB     3        DPPC     C311     CTL2    -0.180000       12.0110           0
       373 MEMB     3        DPPC     H11X     HAL2     0.900000E-01   1.00800           0
       374 MEMB     3        DPPC     H11Y     HAL2     0.900000E-01   1.00800           0
       375 MEMB     3        DPPC     C312     CTL2    -0.180000       12.0110           0
       376 MEMB     3        DPPC     H12X     HAL2     0.900000E-01   1.00800           0
       377 MEMB     3        DPPC     H12Y     HAL2     0.900000E-01   1.00800           0
       378 MEMB     3        DPPC     C313     CTL2    -0.180000       12.0110           0
       379 MEMB     3        DPPC     H13X     HAL2     0.900000E-01   1.00800           0
       380 MEMB     3        DPPC     H13Y     HAL2     0.900000E-01   1.00800           0
       381 MEMB     3        DPPC     C314     CTL2    -0.180000       12.0110           0
       382 MEMB     3        DPPC     H14X     HAL2     0.900000E-01   1.00800           0
       383 MEMB     3        DPPC     H14Y     HAL2     0.900000E-01   1.00800           0
       384 MEMB     3        DPPC     C315     CTL2    -0.180000       12.0110           0
       385 MEMB     3        DPPC     H15X     HAL2     0.900000E-01   1.00800           0
       386 MEMB     3        DPPC     H15Y     HAL2     0.900000E-01   1.00800           0
       387 MEMB     3        DPPC     C316     CTL3    -0.270000       12.0110           0
       388 MEMB     3        DPPC     H16X     HAL3     0.900000E-01   1.00800           0
       389 MEMB     3        DPPC     H16Y     HAL3     0.900000E-01   1.00800           0
       390 MEMB     3        DPPC     H16Z     HAL3     0.900000E-01   1.00800           0
       391 MEMB     4        DPPC     N        NTL     -0.600000       14.0070           0
       392 MEMB     4        DPPC     C13      CTL5    -0.350000       12.0110           0
       393 MEMB     4        DPPC     H13A     HL       0.250000       1.00800           0
       394 MEMB     4        DPPC     H13B     HL       0.250000       1.00800           0
       395 MEMB     4        DPPC     H13C     HL       0.250000       1.00800           0
       396 MEMB     4        DPPC     C14      CTL5    -0.350000       12.0110           0
       397 MEMB     4        DPPC     H14A     HL       0.250000       1.00800           0
       398 MEMB     4        DPPC     H14B     HL       0.250000       1.00800           0
       399 MEMB     4        DPPC     H14C     HL       0.250000       1.00800           0
       400 MEMB     4        DPPC     C15      CTL5    -0.350000       12.0110           0
       401 MEMB     4        DPPC     H15A     HL       0.250000       1.00800           0
       402 MEMB     4        DPPC     H15B     HL       0.250000       1.00800           0
       403 MEMB     4        DPPC     H15C     HL       0.250000       1.00800           0
       404 MEMB     4        DPPC     C12      CTL2    -0.100000       12.0110           0
       405 MEMB     4        DPPC     H12A     HL       0.250000       1.00800           0
       406 MEMB     4        DPPC     H12B     HL       0.250000       1.00800           0
       407 MEMB     4        DPPC     C11      CTL2    -0.800000E-01   12.0110           0
       408 MEMB     4        DPPC     H11A     HAL2     0.900000E-01   1.00800           0
       409 MEMB     4        DPPC     H11B     HAL2     0.900000E-01   1.00800           0
       410 MEMB     4        DPPC     P        PL       1.500000       30.9740           0
       411 MEMB     4        DPPC     O13      O2L     -0.780000       15.9994           0
       412 MEMB     4        DPPC     O14      O2L     -0.780000       15.9994           0
       413 MEMB     4        DPPC     O11      OSLP    -0.570000       15.9994           0
       414 MEMB     4        DPPC     O12      OSLP    -0.570000       15.9994           0
       415 MEMB     4        DPPC     C1       CTL2    -0.800000E-01   12.0110           0
       416 MEMB     4        DPPC     HA       HAL2     0.900000E-01   1.00800           0
       417 MEMB     4        DPPC     HB       HAL2     0.900000E-01   1.00800           0
       418 MEMB     4        DPPC     C2       CTL1     0.170000       12.0110           0
       419 MEMB     4        DPPC     HS       HAL1     0.900000E-01   1.00800           0
       420 MEMB     4        DPPC     O21      OSL     -0.490000       15.9994           0
       421 MEMB     4        DPPC     C21      CL       0.900000       12.0110           0
       422 MEMB     4        DPPC     O22      OBL     -0.630000       15.9994           0
       423 MEMB     4        DPPC     C22      CTL2    -0.220000       12.0110           0
       424 MEMB     4        DPPC     H2R      HAL2     0.900000E-01   1.00800           0
       425 MEMB     4        DPPC     H2S      HAL2     0.900000E-01   1.00800           0
       426 MEMB     4        DPPC     C3       CTL2     0.800000E-01   12.0110           0
       427 MEMB     4        DPPC     HX       HAL2     0.900000E-01   1.00800           0
       428 MEMB     4        DPPC     HY       HAL2     0.900000E-01   1.00800           0
       429 MEMB     4        DPPC     O31      OSL     -0.490000       15.9994           0
       430 MEMB     4        DPPC     C31      CL       0.900000       12.0110           0
       431 MEMB     4        DPPC     O32      OBL     -0.630000       15.9994           0
       432 MEMB     4        DPPC     C32      CTL2    -0.220000       12.0110           0
       433 MEMB     4        DPPC     H2X      HAL2     0.900000E-01   1.00800           0
       434 MEMB     4        DPPC     H2Y      HAL2     0.900000E-01   1.00800           0
       435 MEMB     4        DPPC     C23      CTL2    -0.180000       12.0110           0
       436 MEMB     4        DPPC     H3R      HAL2     0.900000E-01   1.00800           0
       437 MEMB     4        DPPC     H3S      HAL2     0.900000E-01   1.00800           0
       438 MEMB     4        DPPC     C24      CTL2    -0.180000       12.0110           0
       439 MEMB     4        DPPC     H4R      HAL2     0.900000E-01   1.00800           0
       440 MEMB     4        DPPC     H4S      HAL2     0.900000E-01   1.00800           0
       441 MEMB     4        DPPC     C25      CTL2    -0.180000       12.0110           0
       442 MEMB     4        DPPC     H5R      HAL2     0.900000E-01   1.00800           0
       443 MEMB     4        DPPC     H5S      HAL2     0.900000E-01   1.00800           0
       444 MEMB     4        DPPC     C26      CTL2    -0.180000       12.0110           0
       445 MEMB     4        DPPC     H6R      HAL2     0.900000E-01   1.00800           0
       446 MEMB     4        DPPC     H6S      HAL2     0.900000E-01   1.00800           0
       447 MEMB     4        DPPC     C27      CTL2    -0.180000       12.0110           0
       448 MEMB     4        DPPC     H7R      HAL2     0.900000E-01   1.00800           0
       449 MEMB     4        DPPC     H7S      HAL2     0.900000E-01   1.00800           0
       450 MEMB     4        DPPC     C28      CTL2    -0.180000       12.0110           0
       451 MEMB     4        DPPC     H8R      HAL2     0.900000E-01   1.00800           0
       452 MEMB     4        DPPC     H8S      HAL2     0.900000E-01   1.00800           0
       453 MEMB     4        DPPC     C29      CTL2    -0.180000       12.0110           0
       454 MEMB     4        DPPC     H9R      HAL2     0.900000E-01   1.00800           0
       455 MEMB     4        DPPC     H9S      HAL2     0.900000E-01   1.00800           0
       456 MEMB     4        DPPC     C210     CTL2    -0.180000       12.0110           0
       457 MEMB     4        DPPC     H10R     HAL2     0.900000E-01   1.00800           0
       458 MEMB     4        DPPC     H10S     HAL2     0.900000E-01   1.00800           0
       459 MEMB     4        DPPC     C211     CTL2    -0.180000       12.0110           0
       460 MEMB     4        DPPC     H11R     HAL2     0.900000E-01   1.00800           0
       461 MEMB     4        DPPC     H11S     HAL2     0.900000E-01   1.00800           0
       462 MEMB     4        DPPC     C212     CTL2    -0.180000       12.0110           0
       463 MEMB     4        DPPC     H12R     HAL2     0.900000E-01   1.00800           0
       464 MEMB     4        DPPC     H12S     HAL2     0.900000E-01   1.00800           0
       465 MEMB     4        DPPC     C213     CTL2    -0.180000       12.0110           0
       466 MEMB     4        DPPC     H13R     HAL2     0.900000E-01   1.00800           0
       467 MEMB     4        DPPC     H13S     HAL2     0.900000E-01   1.00800           0
       468 MEMB     4        DPPC     C214     CTL2    -0.180000       12.0110           0
       469 MEMB     4        DPPC     H14R     HAL2     0.900000E-01   1.00800           0
       470 MEMB     4        DPPC     H14S     HAL2     0.900000E-01   1.00800           0
       471 MEMB     4        DPPC     C215     CTL2    -0.180000       12.0110           0
       472 MEMB     4        DPPC     H15R     HAL2     0.900000E-01   1.00800           0
       473 MEMB     4        DPPC     H15S     HAL2     0.900000E-01   1.00800           0
       474 MEMB     4        DPPC     C216     CTL3    -0.270000       12.0110           0
       475 MEMB     4        DPPC     H16R     HAL3     0.900000E-01   1.00800           0
       476 MEMB     4        DPPC     H16S     HAL3     0.900000E-01   1.00800           0
       477 MEMB     4        DPPC     H16T     HAL3     0.900000E-01   1.00800           0
       478 MEMB     4        DPPC     C33      CTL2    -0.180000       12.0110           0
       479 MEMB     4        DPPC     H3X      HAL2     0.900000E-01   1.00800           0
       480 MEMB     4        DPPC     H3Y      HAL2     0.900000E-01   1.00800           0
       481 MEMB     4        DPPC     C34      CTL2    -0.180000       12.0110           0
       482 MEMB     4        DPPC     H4X      HAL2     0.900000E-01   1.00800           0
       483 MEMB     4        DPPC     H4Y      HAL2     0.900000E-01   1.00800           0
       484 MEMB     4        DPPC     C35      CTL2    -0.180000       12.0110           0
       485 MEMB     4        DPPC     H5X      HAL2     0.900000E-01   1.00800           0
       486 MEMB     4        DPPC     H5Y      HAL2     0.900000E-01   1.00800           0
       487 MEMB     4        DPPC     C36      CTL2    -0.180000       12.0110           0
       488 MEMB     4        DPPC     H6X      HAL2     0.900000E-01   1.00800           0
       489 MEMB     4        DPPC     H6Y      HAL2     0.900000E-01   1.00800           0
       490 MEMB     4        DPPC     C37      CTL2    -0.180000       12.0110           0
       491 MEMB     4        DPPC     H7X      HAL2     0.900000E-01   1.00800           0
       492 MEMB     4        DPPC     H7Y      HAL2     0.900000E-01   1.00800           0
       493 MEMB     4        DPPC     C38      CTL2    -0.180000       12.0110           0
       494 MEMB     4        DPPC     H8X      HAL2     0.900000E-01   1.00800           0
       495 MEMB     4        DPPC     H8Y      HAL2     0.900000E-01   1.00800           0
       496 MEMB     4        DPPC     C39      CTL2    -0.180000       12.0110           0
       497 MEMB     4        DPPC     H9X      HAL2     0.900000E-01   1.00800           0
       498 MEMB     4        DPPC     H9Y      HAL2     0.900000E-01   1.00800           0
       499 MEMB     4        DPPC     C310     CTL2    -0.180000       12.0110           0
       500 MEMB     4        DPPC     H10X     HAL2     0.900000E-01   1.00800           0
       501 MEMB     4        DPPC     H10Y     HAL2     0.900000E-01   1.00800           0
       502 MEMB     4        DPPC     C311     CTL2    -0.180000       12.0110           0
       503 MEMB     4        DPPC     H11X     HAL2     0.900000E-01   1.00800           0
       504 MEMB     4        DPPC     H11Y     HAL2     0.900000E-01   1.00800           0
       505 MEMB     4        DPPC     C312     CTL2    -0.180000       12.0110           0
       506 MEMB     4        DPPC     H12X     HAL2     0.900000E-01   1.00800           0
       507 MEMB     4        DPPC     H12Y     HAL2     0.900000E-01   1.00800           0
       508 MEMB     4        DPPC     C313     CTL2    -0.180000       12.0110           0
       509 MEMB     4        DPPC     H13X     HAL2     0.900000E-01   1.00800           0
       510 MEMB     4        DPPC     H13Y     HAL2     0.900000E-01   1.00800           0
       511 MEMB     4        DPPC     C314     CTL2    -0.180000       12.0110           0
       512 MEMB     4        DPPC     H14X     HAL2     0.900000E-01   1.00800           0
       513 MEMB     4        DPPC     H14Y     HAL2     0.900000E-01   1.00800           0
       514 MEMB     4        DPPC     C315     CTL2    -0.180000       12.0110           0
       515 MEMB     4        DPPC     H15X     HAL2     0.900000E-01   1.00800           0
       516 MEMB     4        DPPC     H15Y     HAL2     0.900000E-01   1.00800           0
       517 MEMB     4        DPPC     C316     CTL3    -0.270000       12.0110           0
       518 MEMB     4        DPPC     H16X     HAL3     0.900000E-01   1.00800           0
       519 MEMB     4        DPPC     H16Y     HAL3     0.900000E-01   1.00800           0
       520 MEMB     4        DPPC     H16Z     HAL3     0.900000E-01   1.00800           0
       521 MEMB     5        DPPC     N        NTL     -0.600000       14.0070           0
       522 MEMB     5        DPPC     C13      CTL5    -0.350000       12.0110           0
       523 MEMB     5        DPPC     H13A     HL       0.250000       1.00800           0
       524 MEMB     5        DPPC     H13B     HL       0.250000       1.00800           0
       525 MEMB     5        DPPC     H13C     HL       0.250000       1.00800           0
       526 MEMB     5        DPPC     C14      CTL5    -0.350000       12.0110           0
       527 MEMB     5        DPPC     H14A     HL       0.250000       1.00800           0
       528 MEMB     5        DPPC     H14B     HL       0.250000       1.00800           0
       529 MEMB     5        DPPC     H14C     HL       0.250000       1.00800           0
       530 MEMB     5        DPPC     C15      CTL5    -0.350000       12.0110           0
       531 MEMB     5        DPPC     H15A     HL       0.250000       1.00800           0
       532 MEMB     5        DPPC     H15B     HL       0.250000       1.00800           0
       533 MEMB     5        DPPC     H15C     HL       0.250000       1.00800           0
       534 MEMB     5        DPPC     C12      CTL2    -0.100000       12.0110           0
       535 MEMB     5        DPPC     H12A     HL       0.250000       1.00800           0
       536 MEMB     5        DPPC     H12B     HL       0.250000       1.00800           0
       537 MEMB     5        DPPC     C11      CTL2    -0.800000E-01   12.0110           0
       538 MEMB     5        DPPC     H11A     HAL2     0.900000E-01   1.00800           0
       539 MEMB     5        DPPC     H11B     HAL2     0.900000E-01   1.00800           0
       540 MEMB     5        DPPC     P        PL       1.500000       30.9740           0
       541 MEMB     5        DPPC     O13      O2L     -0.780000       15.9994           0
       542 MEMB     5        DPPC     O14      O2L     -0.780000       15.9994           0
       543 MEMB     5        DPPC     O11      OSLP    -0.570000       15.9994           0
       544 MEMB     5        DPPC     O12      OSLP    -0.570000       15.9994           0
       545 MEMB     5        DPPC     C1       CTL2    -0.800000E-01   12.0110           0
       546 MEMB     5        DPPC     HA       HAL2     0.900000E-01   1.00800           0
       547 MEMB     5        DPPC     HB       HAL2     0.900000E-01   1.00800           0
       548 MEMB     5        DPPC     C2       CTL1     0.170000       12.0110           0
       549 MEMB     5        DPPC     HS       HAL1     0.900000E-01   1.00800           0
       550 MEMB     5        DPPC     O21      OSL     -0.490000       15.9994           0
       551 MEMB     5        DPPC     C21      CL       0.900000       12.0110           0
       552 MEMB     5        DPPC     O22      OBL     -0.630000       15.9994           0
       553 MEMB     5        DPPC     C22      CTL2    -0.220000       12.0110           0
       554 MEMB     5        DPPC     H2R      HAL2     0.900000E-01   1.00800           0
       555 MEMB     5        DPPC     H2S      HAL2     0.900000E-01   1.00800           0
       556 MEMB     5        DPPC     C3       CTL2     0.800000E-01   12.0110           0
       557 MEMB     5        DPPC     HX       HAL2     0.900000E-01   1.00800           0
       558 MEMB     5        DPPC     HY       HAL2     0.900000E-01   1.00800           0
       559 MEMB     5        DPPC     O31      OSL     -0.490000       15.9994           0
       560 MEMB     5        DPPC     C31      CL       0.900000       12.0110           0
       561 MEMB     5        DPPC     O32      OBL     -0.630000       15.9994           0
       562 MEMB     5        DPPC     C32      CTL2    -0.220000       12.0110           0
       563 MEMB     5        DPPC     H2X      HAL2     0.900000E-01   1.00800           0
       564 MEMB     5        DPPC     H2Y      HAL2     0.900000E-01   1.00800           0
       565 MEMB     5        DPPC     C23      CTL2    -0.180000       12.0110           0
       566 MEMB     5        DPPC     H3R      HAL2     0.900000E-01   1.00800           0
       567 MEMB     5        DPPC     H3S      HAL2     0.900000E-01   1.00800           0
       568 MEMB     5        DPPC     C24      CTL2    -0.180000       12.0110           0
       569 MEMB     5        DPPC     H4R      HAL2     0.900000E-01   1.00800           0
       570 MEMB     5        DPPC     H4S      HAL2     0.900000E-01   1.00800           0
       571 MEMB     5        DPPC     C25      CTL2    -0.180000       12.0110           0
       572 MEMB     5        DPPC     H5R      HAL2     0.900000E-01   1.00800           0
       573 MEMB     5        DPPC     H5S      HAL2     0.900000E-01   1.00800           0
       574 MEMB     5        DPPC     C26      CTL2    -0.180000       12.0110           0
       575 MEMB     5        DPPC     H6R      HAL2     0.900000E-01   1.00800           0
       576 MEMB     5        DPPC     H6S      HAL2     0.900000E-01   1.00800           0
       577 MEMB     5        DPPC     C27      CTL2    -0.180000       12.0110           0
       578 MEMB     5        DPPC     H7R      HAL2     0.900000E-01   1.00800           0
       579 MEMB     5        DPPC     H7S      HAL2     0.900000E-01   1.00800           0
       580 MEMB     5        DPPC     C28      CTL2    -0.180000       12.0110           0
       581 MEMB     5        DPPC     H8R      HAL2     0.900000E-01   1.00800           0
       582 MEMB     5        DPPC     H8S      HAL2     0.900000E-01   1.00800           0
       583 MEMB     5        DPPC     C29      CTL2    -0.180000       12.0110           0
       584 MEMB     5        DPPC     H9R      HAL2     0.900000E-01   1.00800           0
       585 MEMB     5        DPPC     H9S      HAL2     0.900000E-01   1.00800           0
       586 MEMB     5        DPPC     C210     CTL2    -0.180000       12.0110           0
       587 MEMB     5        DPPC     H10R     HAL2     0.900000E-01   1.00800           0
       588 MEMB     5        DPPC     H10S     HAL2     0.900000E-01   1.00800           0
       589 MEMB     5        DPPC     C211     CTL2    -0.180000       12.0110           0
       590 MEMB     5        DPPC     H11R     HAL2     0.900000E-01   1.00800           0
       591 MEMB     5        DPPC     H11S     HAL2     0.900000E-01   1.00800           0
       592 MEMB     5        DPPC     C212     CTL2    -0.180000       12.0110           0
       593 MEMB     5        DPPC     H12R     HAL2     0.900000E-01   1.00800           0
       594 MEMB     5        DPPC     H12S     HAL2     0.900000E-01   1.00800           0
       595 MEMB     5        DPPC     C213     CTL2    -0.180000       12.0110           0
       596 MEMB     5        DPPC     H13R     HAL2     0.900000E-01   1.00800           0
       597 MEMB     5        DPPC     H13S     HAL2     0.900000E-01   1.00800           0
       598 MEMB     5        DPPC     C214     CTL2    -0.180000       12.0110           0
       599 MEMB     5        DPPC     H14R     HAL2     0.900000E-01   1.00800           0
       600 MEMB     5        DPPC     H14S     HAL2     0.900000E-01   1.00800           0
       601 MEMB     5        DPPC     C215     CTL2    -0.180000       12.0110           0
       602 MEMB     5        DPPC     H15R     HAL2     0.900000E-01   1.00800           0
       603 MEMB     5        DPPC     H15S     HAL2     0.900000E-01   1.00800           0
       604 MEMB     5        DPPC     C216     CTL3    -0.270000       12.0110           0
       605 MEMB     5        DPPC     H16R     HAL3     0.900000E-01   1.00800           0
       606 MEMB     5        DPPC     H16S     HAL3     0.900000E-01   1.00800           0
       607 MEMB     5        DPPC     H16T     HAL3     0.900000E-01   1.00800           0
       608 MEMB     5        DPPC     C33      CTL2    -0.180000       12.0110           0
       609 MEMB     5        DPPC     H3X      HAL2     0.900000E-01   1.00800           0
       610 MEMB     5        DPPC     H3Y      HAL2     0.900000E-01   1.00800           0
       611 MEMB     5        DPPC     C34      CTL2    -0.180000       12.0110           0
       612 MEMB     5        DPPC     H4X      HAL2     0.900000E-01   1.00800           0
       613 MEMB     5        DPPC     H4Y      HAL2     0.900000E-01   1.00800           0
       614 MEMB     5        DPPC     C35      CTL2    -0.180000       12.0110           0
       615 MEMB     5        DPPC     H5X      HAL2     0.900000E-01   1.00800           0
       616 MEMB     5        DPPC     H5Y      HAL2     0.900000E-01   1.00800           0
       617 MEMB     5        DPPC     C36      CTL2    -0.180000       12.0110           0
       618 MEMB     5        DPPC     H6X      HAL2     0.900000E-01   1.00800           0
       619 MEMB     5        DPPC     H6Y      HAL2     0.900000E-01   1.00800           0
       620 MEMB     5        DPPC     C37      CTL2    -0.180000       12.0110           0
       621 MEMB     5        DPPC     H7X      HAL2     0.900000E-01   1.00800           0
       622 MEMB     5        DPPC     H7Y      HAL2     0.900000E-01   1.00800           0
       623 MEMB     5        DPPC     C38      CTL2    -0.180000       12.0110           0
       624 MEMB     5        DPPC     H8X      HAL2     0.900000E-01   1.00800           0
       625 MEMB     5        DPPC     H8Y      HAL2     0.900000E-01   1.00800           0
       626 MEMB     5        DPPC     C39      CTL2    -0.180000       12.0110           0
       627 MEMB     5        DPPC     H9X      HAL2     0.900000E-01   1.00800           0
       628 MEMB     5        DPPC     H9Y      HAL2     0.900000E-01   1.00800           0
       629 MEMB     5        DPPC     C310     CTL2    -0.180000       12.0110           0
       630 MEMB     5        DPPC     H10X     HAL2     0.900000E-01   1.00800           0
       631 MEMB     5        DPPC     H10Y     HAL2     0.900000E-01   1.00800           0
       632 MEMB     5        DPPC     C311     CTL2    -0.180000       12.0110           0
       633 MEMB     5        DPPC     H11X     HAL2     0.900000E-01   1.00800           0
       634 MEMB     5        DPPC     H11Y     HAL2     0.900000E-01   1.00800           0
       635 MEMB     5        DPPC     C312     CTL2    -0.180000       12.0110           0
       636 MEMB     5        DPPC     H12X     HAL2     0.900000E-01   1.00800           0
       637 MEMB     5        DPPC     H12Y     HAL2     0.900000E-01   1.00800           0
       638 MEMB     5        DPPC     C313     CTL2    -0.180000       12.0110           0
       639 MEMB     5        DPPC     H13X     HAL2     0.900000E-01   1.00800           0
       640 MEMB     5        DPPC     H13Y     HAL2     0.900000E-01   1.00800           0
       641 MEMB     5        DPPC     C314     CTL2    -0.180000       12.0110           0
       642 MEMB     5        DPPC     H14X     HAL2     0.900000E-01   1.00800           0
       643 MEMB     5        DPPC     H14Y     HAL2     0.900000E-01   1.00800           0
       644 MEMB     5        DPPC     C315     CTL2    -0.180000       12.0110           0
       645 MEMB     5        DPPC     H15X     HAL2     0.900000E-01   1.00800           0
       646 MEMB     5        DPPC     H15Y     HAL2     0.900000E-01   1.00800           0
       647 MEMB     5        DPPC     C316     CTL3    -0.270000       12.0110           0
       648 MEMB     5        DPPC     H16X     HAL3     0.900000E-01   1.00800           0
       649 MEMB     5        DPPC     H16Y     HAL3     0.900000E-01   1.00800           0
       650 MEMB     5        DPPC     H16Z     HAL3     0.900000E-01   1.00800           0
       651 MEMB     6        DPPC     N        NTL     -0.600000       14.0070           0
       652 MEMB     6        DPPC     C13      CTL5    -0.350000       12.0110           0
       653 MEMB     6        DPPC     H13A     HL       0.250000       1.00800           0
       654 MEMB     6        DPPC     H13B     HL       0.250000       1.00800           0
       655 MEMB     6        DPPC     H13C     HL       0.250000       1.00800           0
       656 MEMB     6        DPPC     C14      CTL5    -0.350000       12.0110           0
       657 MEMB     6        DPPC     H14A     HL       0.250000       1.00800           0
       658 MEMB     6        DPPC     H14B     HL       0.250000       1.00800           0
       659 MEMB     6        DPPC     H14C     HL       0.250000       1.00800           0
       660 MEMB     6        DPPC     C15      CTL5    -0.350000       12.0110           0
       661 MEMB     6        DPPC     H15A     HL       0.250000       1.00800           0
       662 MEMB     6        DPPC     H15B     HL       0.250000       1.00800           0
       663 MEMB     6        DPPC     H15C     HL       0.250000       1.00800           0
       664 MEMB     6        DPPC     C12      CTL2    -0.100000       12.0110           0
       665 MEMB     6        DPPC     H12A     HL       0.250000       1.00800           0
       666 MEMB     6        DPPC     H12B     HL       0.250000       1.00800           0
       667 MEMB     6        DPPC     C11      CTL2    -0.800000E-01   12.0110           0
       668 MEMB     6        DPPC     H11A     HAL2     0.900000E-01   1.00800           0
       669 MEMB     6        DPPC     H11B     HAL2     0.900000E-01   1.00800           0
       670 MEMB     6        DPPC     P        PL       1.500000       30.9740           0
       671 MEMB     6        DPPC     O13      O2L     -0.780000       15.9994           0
       672 MEMB     6        DPPC     O14      O2L     -0.780000       15.9994           0
       673 MEMB     6        DPPC     O11      OSLP    -0.570000       15.9994           0
       674 MEMB     6        DPPC     O12      OSLP    -0.570000       15.9994           0
       675 MEMB     6        DPPC     C1       CTL2    -0.800000E-01   12.0110           0
       676 MEMB     6        DPPC     HA       HAL2     0.900000E-01   1.00800           0
       677 MEMB     6        DPPC     HB       HAL2     0.900000E-01   1.00800           0
       678 MEMB     6        DPPC     C2       CTL1     0.170000       12.0110           0
       679 MEMB     6        DPPC     HS       HAL1     0.900000E-01   1.00800           0
       680 MEMB     6        DPPC     O21      OSL     -0.490000       15.9994           0
       681 MEMB     6        DPPC     C21      CL       0.900000       12.0110           0
       682 MEMB     6        DPPC     O22      OBL     -0.630000       15.9994           0
       683 MEMB     6        DPPC     C22      CTL2    -0.220000       12.0110           0
       684 MEMB     6        DPPC     H2R      HAL2     0.900000E-01   1.00800           0
       685 MEMB     6        DPPC     H2S      HAL2     0.900000E-01   1.00800           0
       686 MEMB     6        DPPC     C3       CTL2     0.800000E-01   12.0110           0
       687 MEMB     6        DPPC     HX       HAL2     0.900000E-01   1.00800           0
       688 MEMB     6        DPPC     HY       HAL2     0.900000E-01   1.00800           0
       689 MEMB     6        DPPC     O31      OSL     -0.490000       15.9994           0
       690 MEMB     6        DPPC     C31      CL       0.900000       12.0110           0
       691 MEMB     6        DPPC     O32      OBL     -0.630000       15.9994           0
       692 MEMB     6        DPPC     C32      CTL2    -0.220000       12.0110           0
       693 MEMB     6        DPPC     H2X      HAL2     0.900000E-01   1.00800           0
       694 MEMB     6        DPPC     H2Y      HAL2     0.900000E-01   1.00800           0
       695 MEMB     6        DPPC     C23      CTL2    -0.180000       12.0110           0
       696 MEMB     6        DPPC     H3R      HAL2     0.900000E-01   1.00800           0
       697 MEMB     6        DPPC     H3S      HAL2     0.900000E-01   1.00800           0
       698 MEMB     6        DPPC     C24      CTL2    -0.180000       12.0110           0
       699 MEMB     6        DPPC     H4R      HAL2     0.900000E-01   1.00800           0
       700 MEMB     6        DPPC     H4S      HAL2     0.900000E-01   1.00800           0
       701 MEMB     6        DPPC     C25      CTL2    -0.180000       12.0110           0
       702 MEMB     6        DPPC     H5R      HAL2     0.900000E-01   1.00800           0
       703 MEMB     6        DPPC     H5S      HAL2     0.900000E-01   1.00800           0
       704 MEMB     6        DPPC     C26      CTL2    -0.180000       12.0110           0
       705 MEMB     6        DPPC     H6R      HAL2     0.900000E-01   1.00800           0
       706 MEMB     6        DPPC     H6S      HAL2     0.900000E-01   1.00800           0
       707 MEMB     6        DPPC     C27      CTL2    -0.180000       12.0110           0
       708 MEMB     6        DPPC     H7R      HAL2     0.900000E-01   1.00800           0
       709 MEMB     6        DPPC     H7S      HAL2     0.900000E-01   1.00800           0
       710 MEMB     6        DPPC     C28      CTL2    -0.180000       12.0110           0
       711 MEMB     6        DPPC     H8R      HAL2     0.900000E-01   1.00800           0
       712 MEMB     6        DPPC     H8S      HAL2     0.900000E-01   1.00800           0
       713 MEMB     6        DPPC     C29      CTL2    -0.180000       12.0110           0
       714 MEMB     6        DPPC     H9R      HAL2     0.900000E-01   1.00800           0
       715 MEMB     6        DPPC     H9S      HAL2     0.900000E-01   1.00800           0
       716 MEMB     6        DPPC     C210     CTL2    -0.180000       12.0110           0
       717 MEMB     6        DPPC     H10R     HAL2     0.900000E-01   1.00800           0
       718 MEMB     6        DPPC     H10S     HAL2     0.900000E-01   1.00800           0
       719 MEMB     6        DPPC     C211     CTL2    -0.180000       12.0110           0
       720 MEMB     6        DPPC     H11R     HAL2     0.900000E-01   1.00800           0
       721 MEMB     6        DPPC     H11S     HAL2     0.900000E-01   1.00800           0
       722 MEMB     6        DPPC     C212     CTL2    -0.180000       12.0110           0
       723 MEMB     6        DPPC     H12R     HAL2     0.900000E-01   1.00800           0
       724 MEMB     6        DPPC     H12S     HAL2     0.900000E-01   1.00800           0
       725 MEMB     6        DPPC     C213     CTL2    -0.180000       12.0110           0
       726 MEMB     6        DPPC     H13R     HAL2     0.900000E-01   1.00800           0
       727 MEMB     6        DPPC     H13S     HAL2     0.900000E-01   1.00800           0
       728 MEMB     6        DPPC     C214     CTL2    -0.180000       12.0110           0
       729 MEMB     6        DPPC     H14R     HAL2     0.900000E-01   1.00800           0
       730 MEMB     6        DPPC     H14S     HAL2     0.900000E-01   1.00800           0
       731 MEMB     6        DPPC     C215     CTL2    -0.180000       12.0110           0
       732 MEMB     6        DPPC     H15R     HAL2     0.900000E-01   1.00800           0
       733 MEMB     6        DPPC     H15S     HAL2     0.900000E-01   1.00800           0
       734 MEMB     6        DPPC     C216     CTL3    -0.270000       12.0110           0
       735 MEMB     6        DPPC     H16R     HAL3     0.900000E-01   1.00800           0
       736 MEMB     6        DPPC     H16S     HAL3     0.900000E-01   1.00800           0
       737 MEMB     6        DPPC     H16T     HAL3     0.900000E-01   1.00800           0
       738 MEMB     6        DPPC     C33      CTL2    -0.180000       12.0110           0
       739 MEMB     6        DPPC     H3X      HAL2     0.900000E-01   1.00800           0
       740 MEMB     6        DPPC     H3Y      HAL2     0.900000E-01   1.00800           0
       741 MEMB     6        DPPC     C34      CTL2    -0.180000       12.0110           0
       742 MEMB     6        DPPC     H4X      HAL2     0.900000E-01   1.00800           0
       743 MEMB     6        DPPC     H4Y      HAL2     0.900000E-01   1.00800           0
       744 MEMB     6        DPPC     C35      CTL2    -0.180000       12.0110           0
       745 MEMB     6        DPPC     H5X      HAL2     0.900000E-01   1.00800           0
       746 MEMB     6        DPPC     H5Y      HAL2     0.900000E-01   1.00800           0
       747 MEMB     6        DPPC     C36      CTL2    -0.180000       12.0110           0
       748 MEMB     6        DPPC     H6X      HAL2     0.900000E-01   1.00800           0
       749 MEMB     6        DPPC     H6Y      HAL2     0.900000E-01   1.00800           0
       750 MEMB     6        DPPC     C37      CTL2    -0.180000       12.0110           0
       751 MEMB     6        DPPC     H7X      HAL2     0.900000E-01   1.00800           0
       752 MEMB     6        DPPC     H7Y      HAL2     0.900000E-01   1.00800           0
       753 MEMB     6        DPPC     C38      CTL2    -0.180000       12.0110           0
       754 MEMB     6        DPPC     H8X      HAL2     0.900000E-01   1.00800           0
       755 MEMB     6        DPPC     H8Y      HAL2     0.900000E-01   1.00800           0
       756 MEMB     6        DPPC     C39      CTL2    -0.180000       12.0110           0
       757 MEMB     6        DPPC     H9X      HAL2     0.900000E-01   1.00800           0
       758 MEMB     6        DPPC     H9Y      HAL2     0.900000E-01   1.00800           0
       759 MEMB     6        DPPC     C310     CTL2    -0.180000       12.0110           0
       760 MEMB     6        DPPC     H10X     HAL2     0.900000E-01   1.00800           0
       761 MEMB     6        DPPC     H10Y     HAL2     0.900000E-01   1.00800           0
       762 MEMB     6        DPPC     C311     CTL2    -0.180000       12.0110           0
       763 MEMB     6        DPPC     H11X     HAL2     0.900000E-01   1.00800           0
       764 MEMB     6        DPPC     H11Y     HAL2     0.900000E-01   1.00800           0
       765 MEMB     6        DPPC     C312     CTL2    -0.180000       12.0110           0
       766 MEMB     6        DPPC     H12X     HAL2     0.900000E-01   1.00800           0
       767 MEMB     6        DPPC     H12Y     HAL2     0.900000E-01   1.00800           0
       768 MEMB     6        DPPC     C313     CTL2    -0.180000       12.0110           0
       769 MEMB     6        DPPC     H13X     HAL2     0.900000E-01   1.00800           0
       770 MEMB     6        DPPC     H13Y     HAL2     0.900000E-01   1.00800           0
       771 MEMB     6        DPPC     C314     CTL2    -0.180000       12.0110           0
       772 MEMB     6        DPPC     H14X     HAL2     0.900000E-01   1.00800           0
       773 MEMB     6        DPPC     H14Y     HAL2     0.900000E-01   1.00800           0
       774 MEMB     6        DPPC     C315     CTL2    -0.180000       12.0110           0
       775 MEMB     6        DPPC     H15X     HAL2     0.900000E-01   1.00800           0
       776 MEMB     6        DPPC     H15Y     HAL2     0.900000E-01   1.00800           0
       777 MEMB     6        DPPC     C316     CTL3    -0.270000       12.0110           0
       778 MEMB     6        DPPC     H16X     HAL3     0.900000E-01   1.00800           0
       779 MEMB     6        DPPC     H16Y     HAL3     0.900000E-01   1.00800           0
       780 MEMB     6        DPPC     H16Z     HAL3     0.900000E-01   1.00800           0
       781 MEMB     7        DPPC     N        NTL     -0.600000       14.0070           0
       782 MEMB     7        DPPC     C13      CTL5    -0.350000       12.0110           0
       783 MEMB     7        DPPC     H13A     HL       0.250000       1.00800           0
       784 MEMB     7        DPPC     H13B     HL       0.250000       1.00800           0
       785 MEMB     7        DPPC     H13C     HL       0.250000       1.00800           0
       786 MEMB     7        DPPC     C14      CTL5    -0.350000       12.0110           0
       787 MEMB     7        DPPC     H14A     HL       0.250000       1.00800           0
       788 MEMB     7        DPPC     H14B     HL       0.250000       1.00800           0
       789 MEMB     7        DPPC     H14C     HL       0.250000       1.00800           0
       790 MEMB     7        DPPC     C15      CTL5    -0.350000       12.0110           0
       791 MEMB     7        DPPC     H15A     HL       0.250000       1.00800           0
       792 MEMB     7        DPPC     H15B     HL       0.250000       1.00800           0
       793 MEMB     7        DPPC     H15C     HL       0.250000       1.00800           0
       794 MEMB     7        DPPC     C12      CTL2    -0.100000       12.0110           0
       795 MEMB     7        DPPC     H12A     HL       0.250000       1.00800           0
       796 MEMB     7        DPPC     H12B     HL       0.250000       1.00800           0
       797 MEMB     7        DPPC     C11      CTL2    -0.800000E-01   12.0110           0
       798 MEMB     7        DPPC     H11A     HAL2     0.900000E-01   1.00800           0
       799 MEMB     7        DPPC     H11B     HAL2     0.900000E-01   1.00800           0
       800 MEMB     7        DPPC     P        PL       1.500000       30.9740           0
       801 MEMB     7        DPPC     O13      O2L     -0.780000       15.9994           0
       802 MEMB     7        DPPC     O14      O2L     -0.780000       15.9994           0
       803 MEMB     7        DPPC     O11      OSLP    -0.570000       15.9994           0
       804 MEMB     7        DPPC     O12      OSLP    -0.570000       15.9994           0
       805 MEMB     7        DPPC     C1       CTL2    -0.800000E-01   12.0110           0
       806 MEMB     7        DPPC     HA       HAL2     0.900000E-01   1.00800           0
       807 MEMB     7        DPPC     HB       HAL2     0.900000E-01   1.00800           0
       808 MEMB     7        DPPC     C2       CTL1     0.170000       12.0110           0
       809 MEMB     7        DPPC     HS       HAL1     0.900000E-01   1.00800           0
       810 MEMB     7        DPPC     O21      OSL     -0.490000       15.9994           0
       811 MEMB     7        DPPC     C21      CL       0.900000       12.0110           0
       812 MEMB     7        DPPC     O22      OBL     -0.630000       15.9994           0
       813 MEMB     7        DPPC     C22      CTL2    -0.220000       12.0110           0
       814 MEMB     7        DPPC     H2R      HAL2     0.900000E-01   1.00800           0
       815 MEMB     7        DPPC     H2S      HAL2     0.900000E-01   1.00800           0
       816 MEMB     7        DPPC     C3       CTL2     0.800000E-01   12.0110           0
       817 MEMB     7        DPPC     HX       HAL2     0.900000E-01   1.00800           0
       818 MEMB     7        DPPC     HY       HAL2     0.900000E-01   1.00800           0
       819 MEMB     7        DPPC     O31      OSL     -0.490000       15.9994           0
       820 MEMB     7        DPPC     C31      CL       0.900000       12.0110           0
       821 MEMB     7        DPPC     O32      OBL     -0.630000       15.9994           0
       822 MEMB     7        DPPC     C32      CTL2    -0.220000       12.0110           0
       823 MEMB     7        DPPC     H2X      HAL2     0.900000E-01   1.00800           0
       824 MEMB     7        DPPC     H2Y      HAL2     0.900000E-01   1.00800           0
       825 MEMB     7        DPPC     C23      CTL2    -0.180000       12.0110           0
       826 MEMB     7        DPPC     H3R      HAL2     0.900000E-01   1.00800           0
       827 MEMB     7        DPPC     H3S      HAL2     0.900000E-01   1.00800           0
       828 MEMB     7        DPPC     C24      CTL2    -0.180000       12.0110           0
       829 MEMB     7        DPPC     H4R      HAL2     0.900000E-01   1.00800           0
       830 MEMB     7        DPPC     H4S      HAL2     0.900000E-01   1.00800           0
       831 MEMB     7        DPPC     C25      CTL2    -0.180000       12.0110           0
       832 MEMB     7        DPPC     H5R      HAL2     0.900000E-01   1.00800           0
       833 MEMB     7        DPPC     H5S      HAL2     0.900000E-01   1.00800           0
       834 MEMB     7        DPPC     C26      CTL2    -0.180000       12.0110           0
       835 MEMB     7        DPPC     H6R      HAL2     0.900000E-01   1.00800           0
       836 MEMB     7        DPPC     H6S      HAL2     0.900000E-01   1.00800           0
       837 MEMB     7        DPPC     C27      CTL2    -0.180000       12.0110           0
       838 MEMB     7        DPPC     H7R      HAL2     0.900000E-01   1.00800           0
       839 MEMB     7        DPPC     H7S      HAL2     0.900000E-01   1.00800           0
       840 MEMB     7        DPPC     C28      CTL2    -0.180000       12.0110           0
       841 MEMB     7        DPPC     H8R      HAL2     0.900000E-01   1.00800           0
       842 MEMB     7        DPPC     H8S      HAL2     0.900000E-01   1.00800           0
       843 MEMB     7        DPPC     C29      CTL2    -0.180000       12.0110           0
       844 MEMB     7        DPPC     H9R      HAL2     0.900000E-01   1.00800           0
       845 MEMB     7        DPPC     H9S      HAL2     0.900000E-01   1.00800           0
       846 MEMB     7        DPPC     C210     CTL2    -0.180000       12.0110           0
       847 MEMB     7        DPPC     H10R     HAL2     0.900000E-01   1.00800           0
       848 MEMB     7        DPPC     H10S     HAL2     0.900000E-01   1.00800           0
       849 MEMB     7        DPPC     C211     CTL2    -0.180000       12.0110           0
       850 MEMB     7        DPPC     H11R     HAL2     0.900000E-01   1.00800           0
       851 MEMB     7        DPPC     H11S     HAL2     0.900000E-01   1.00800           0
       852 MEMB     7        DPPC     C212     CTL2    -0.180000       12.0110           0
       853 MEMB     7        DPPC     H12R     HAL2     0.900000E-01   1.00800           0
       854 MEMB     7        DPPC     H12S     HAL2     0.900000E-01   1.00800           0
       855 MEMB     7        DPPC     C213     CTL2    -0.180000       12.0110           0
       856 MEMB     7        DPPC     H13R     HAL2     0.900000E-01   1.00800           0
       857 MEMB     7        DPPC     H13S     HAL2     0.900000E-01   1.00800           0
       858 MEMB     7        DPPC     C214     CTL2    -0.180000       12.0110           0
       859 MEMB     7        DPPC     H14R     HAL2     0.900000E-01   1.00800           0
       860 MEMB     7        DPPC     H14S     HAL2     0.900000E-01   1.00800           0
       861 MEMB     7        DPPC     C215     CTL2    -0.180000       12.0110           0
       862 MEMB     7        DPPC     H15R     HAL2     0.900000E-01   1.00800           0
       863 MEMB     7        DPPC     H15S     HAL2     0.900000E-01   1.00800           0
       864 MEMB     7        DPPC     C216     CTL3    -0.270000       12.0110           0
       865 MEMB     7        DPPC     H16R     HAL3     0.900000E-01   1.00800           0
       866 MEMB     7        DPPC     H16S     HAL3     0.900000E-01   1.00800           0
       867 MEMB     7        DPPC     H16T     HAL3     0.900000E-01   1.00800           0
       868 MEMB     7        DPPC     C33      CTL2    -0.180000       12.0110           0
       869 MEMB     7        DPPC     H3X      HAL2     0.900000E-01   1.00800           0
       870 MEMB     7        DPPC     H3Y      HAL2     0.900000E-01   1.00800           0
       871 MEMB     7        DPPC     C34      CTL2    -0.180000       12.0110           0
       872 MEMB     7        DPPC     H4X      HAL2     0.900000E-01   1.00800           0
       873 MEMB     7        DPPC     H4Y      HAL2     0.900000E-01   1.00800           0
       874 MEMB     7        DPPC     C35      CTL2    -0.180000       12.0110           0
       875 MEMB     7        DPPC     H5X      HAL2     0.900000E-01   1.00800           0
       876 MEMB     7        DPPC     H5Y      HAL2     0.900000E-01   1.00800           0
       877 MEMB     7        DPPC     C36      CTL2    -0.180000       12.0110           0
       878 MEMB     7        DPPC     H6X      HAL2     0.900000E-01   1.00800           0
       879 MEMB     7        DPPC     H6Y      HAL2     0.900000E-01   1.00800           0
       880 MEMB     7        DPPC     C37      CTL2    -0.180000       12.0110           0
       881 MEMB     7        DPPC     H7X      HAL2     0.900000E-01   1.00800           0
       882 MEMB     7        DPPC     H7Y      HAL2     0.900000E-01   1.00800           0
       883 MEMB     7        DPPC     C38      CTL2    -0.180000       12.0110           0
       884 MEMB     7        DPPC     H8X      HAL2     0.900000E-01   1.00800           0
       885 MEMB     7        DPPC     H8Y      HAL2     0.900000E-01   1.00800           0
       886 MEMB     7        DPPC     C39      CTL2    -0.180000       12.0110           0
       887 MEMB     7        DPPC     H9X      HAL2     0.900000E-01   1.00800           0
       888 MEMB     7        DPPC     H9Y      HAL2     0.900000E-01   1.00800           0
       889 MEMB     7        DPPC     C310     CTL2    -0.180000       12.0110           0
       890 MEMB     7        DPPC     H10X     HAL2     0.900000E-01   1.00800           0
       891 MEMB     7        DPPC     H10Y     HAL2     0.900000E-01   1.00800           0
       892 MEMB     7        DPPC     C311     CTL2    -0.180000       12.0110           0
       893 MEMB     7        DPPC     H11X     HAL2     0.900000E-01   1.00800           0
       894 MEMB     7        DPPC     H11Y     HAL2     0.900000E-01   1.00800           0
       895 MEMB     7        DPPC     C312     CTL2    -0.180000       12.0110           0
       896 MEMB     7        DPPC     H12X     HAL2     0.900000E-01   1.00800           0
       897 MEMB     7        DPPC     H12Y     HAL2     0.900000E-01   1.00800           0
       898 MEMB     7        DPPC     C313     CTL2    -0.180000       12.0110           0
       899 MEMB     7        DPPC     H13X     HAL2     0.900000E-01   1.00800           0
       900 MEMB     7        DPPC     H13Y     HAL2     0.900000E-01   1.00800           0
       901 MEMB     7        DPPC     C314     CTL2    -0.180000       12.0110           0
       902 MEMB     7        DPPC     H14X     HAL2     0.900000E-01   1.00800           0
       903 MEMB     7        DPPC     H14Y     HAL2     0.900000E-01   1.00800           0
       904 MEMB     7        DPPC     C315     CTL2    -0.180000       12.0110           0
       905 MEMB     7        DPPC     H15X     HAL2     0.900000E-01   1.00800           0
       906 MEMB     7        DPPC     H15Y     HAL2     0.900000E-01   1.00800           0
       907 MEMB     7        DPPC     C316     CTL3    -0.270000       12.0110           0
       908 MEMB     7        DPPC     H16X     HAL3     0.900000E-01   1.00800           0
       909 MEMB     7        DPPC     H16Y     HAL3     0.900000E-01   1.00800           0
       910 MEMB     7        DPPC     H16Z     HAL3     0.900000E-01   1.00800           0
       911 MEMB     8        DPPC     N        NTL     -0.600000       14.0070           0
       912 MEMB     8        DPPC     C13      CTL5    -0.350000       12.0110           0
       913 MEMB     8        DPPC     H13A     HL       0.250000       1.00800           0
       914 MEMB     8        DPPC     H13B     HL       0.250000       1.00800           0
       915 MEMB     8        DPPC     H13C     HL       0.250000       1.00800           0
       916 MEMB     8        DPPC     C14      CTL5    -0.350000       12.0110           0
       917 MEMB     8        DPPC     H14A     HL       0.250000       1.00800           0
       918 MEMB     8        DPPC     H14B     HL       0.250000       1.00800           0
       919 MEMB     8        DPPC     H14C     HL       0.250000       1.00800           0
       920 MEMB     8        DPPC     C15      CTL5    -0.350000       12.0110           0
       921 MEMB     8        DPPC     H15A     HL       0.250000       1.00800           0
       922 MEMB     8        DPPC     H15B     HL       0.250000       1.00800           0
       923 MEMB     8        DPPC     H15C     HL       0.250000       1.00800           0
       924 MEMB     8        DPPC     C12      CTL2    -0.100000       12.0110           0
       925 MEMB     8        DPPC     H12A     HL       0.250000       1.00800           0
       926 MEMB     8        DPPC     H12B     HL       0.250000       1.00800           0
       927 MEMB     8        DPPC     C11      CTL2    -0.800000E-01   12.0110           0
       928 MEMB     8        DPPC     H11A     HAL2     0.900000E-01   1.00800           0
       929 MEMB     8        DPPC     H11B     HAL2     0.900000E-01   1.00800           0
       930 MEMB     8        DPPC     P        PL       1.500000       30.9740           0
       931 MEMB     8        DPPC     O13      O2L     -0.780000       15.9994           0
       932 MEMB     8        DPPC     O14      O2L     -0.780000       15.9994           0
       933 MEMB     8        DPPC     O11      OSLP    -0.570000       15.9994           0
       934 MEMB     8        DPPC     O12      OSLP    -0.570000       15.9994           0
       935 MEMB     8        DPPC     C1       CTL2    -0.800000E-01   12.0110           0
       936 MEMB     8        DPPC     HA       HAL2     0.900000E-01   1.00800           0
       937 MEMB     8        DPPC     HB       HAL2     0.900000E-01   1.00800           0
       938 MEMB     8        DPPC     C2       CTL1     0.170000       12.0110           0
       939 MEMB     8        DPPC     HS       HAL1     0.900000E-01   1.00800           0
       940 MEMB     8        DPPC     O21      OSL     -0.490000       15.9994           0
       941 MEMB     8        DPPC     C21      CL       0.900000       12.0110           0
       942 MEMB     8        DPPC     O22      OBL     -0.630000       15.9994           0
       943 MEMB     8        DPPC     C22      CTL2    -0.220000       12.0110           0
       944 MEMB     8        DPPC     H2R      HAL2     0.900000E-01   1.00800           0
       945 MEMB     8        DPPC     H2S      HAL2     0.900000E-01   1.00800           0
       946 MEMB     8        DPPC     C3       CTL2     0.800000E-01   12.0110           0
       947 MEMB     8        DPPC     HX       HAL2     0.900000E-01   1.00800           0
       948 MEMB     8        DPPC     HY       HAL2     0.900000E-01   1.00800           0
       949 MEMB     8        DPPC     O31      OSL     -0.490000       15.9994           0
       950 MEMB     8        DPPC     C31      CL       0.900000       12.0110           0
       951 MEMB     8        DPPC     O32      OBL     -0.630000       15.9994           0
       952 MEMB     8        DPPC     C32      CTL2    -0.220000       12.0110           0
       953 MEMB     8        DPPC     H2X      HAL2     0.900000E-01   1.00800           0
       954 MEMB     8        DPPC     H2Y      HAL2     0.900000E-01   1.00800           0
       955 MEMB     8        DPPC     C23      CTL2    -0.180000       12.0110           0
       956 MEMB     8        DPPC     H3R      HAL2     0.900000E-01   1.00800           0
       957 MEMB     8        DPPC     H3S      HAL2     0.900000E-01   1.00800           0
       958 MEMB     8        DPPC     C24      CTL2    -0.180000       12.0110           0
       959 MEMB     8        DPPC     H4R      HAL2     0.900000E-01   1.00800           0
       960 MEMB     8        DPPC     H4S      HAL2     0.900000E-01   1.00800           0
       961 MEMB     8        DPPC     C25      CTL2    -0.180000       12.0110           0
       962 MEMB     8        DPPC     H5R      HAL2     0.900000E-01   1.00800           0
       963 MEMB     8        DPPC     H5S      HAL2     0.900000E-01   1.00800           0
       964 MEMB     8        DPPC     C26      CTL2    -0.180000       12.0110           0
       965 MEMB     8        DPPC     H6R      HAL2     0.900000E-01   1.00800           0
       966 MEMB     8        DPPC     H6S      HAL2     0.900000E-01   1.00800           0
       967 MEMB     8        DPPC     C27      CTL2    -0.180000       12.0110           0
       968 MEMB     8        DPPC     H7R      HAL2     0.900000E-01   1.00800           0
       969 MEMB     8        DPPC     H7S      HAL2     0.900000E-01   1.00800           0
       970 MEMB     8        DPPC     C28      CTL2    -0.180000       12.0110           0
       971 MEMB     8        DPPC     H8R      HAL2     0.900000E-01   1.00800           0
       972 MEMB     8        DPPC     H8S      HAL2     0.900000E-01   1.00800           0
       973 MEMB     8        DPPC     C29      CTL2    -0.180000       12.0110           0
       974 MEMB     8        DPPC     H9R      HAL2     0.900000E-01   1.00800           0
       975 MEMB     8        DPPC     H9S      HAL2     0.900000E-01   1.00800           0
       976 MEMB     8        DPPC     C210     CTL2    -0.180000       12.0110           0
       977 MEMB     8        DPPC     H10R     HAL2     0.900000E-01   1.00800           0
       978 MEMB     8        DPPC     H10S     HAL2     0.900000E-01   1.00800           0
       979 MEMB     8        DPPC     C211     CTL2    -0.180000       12.0110           0
       980 MEMB     8        DPPC     H11R     HAL2     0.900000E-01   1.00800           0
       981 MEMB     8        DPPC     H11S     HAL2     0.900000E-01   1.00800           0
       982 MEMB     8        DPPC     C212     CTL2    -0.180000       12.0110           0
       983 MEMB     8        DPPC     H12R     HAL2     0.900000E-01   1.00800           0
       984 MEMB     8        DPPC     H12S     HAL2     0.900000E-01   1.00800           0
       985 MEMB     8        DPPC     C213     CTL2    -0.180000       12.0110           0
       986 MEMB     8        DPPC     H13R     HAL2     0.900000E-01   1.00800           0
       987 MEMB     8        DPPC     H13S     HAL2     0.900000E-01   1.00800           0
       988 MEMB     8        DPPC     C214     CTL2    -0.180000       12.0110           0
       989 MEMB     8        DPPC     H14R     HAL2     0.900000E-01   1.00800           0
       990 MEMB     8        DPPC     H14S     HAL2     0.900000E-01   1.00800           0
       991 MEMB     8        DPPC     C215     CTL2    -0.180000       12.0110           0
       992 MEMB     8        DPPC     H15R     HAL2     0.900000E-01   1.00800           0
       993 MEMB     8        DPPC     H15S     HAL2     0.900000E-01   1.00800           0
       994 MEMB     8        DPPC     C216     CTL3    -0.270000       12.0110           0
       995 MEMB     8        DPPC     H16R     HAL3     0.900000E-01   1.00800           0
       996 MEMB     8        DPPC     H16S     HAL3     0.900000E-01   1.00800           0
       997 MEMB     8        DPPC     H16T     HAL3     0.900000E-01   1.00800           0
       998 MEMB     8        DPPC     C33      CTL2    -0.180000       12.0110           0
       999 MEMB     8        DPPC     H3X      HAL2     0.900000E-01   1.00800           0
      1000 MEMB     8        DPPC     H3Y      HAL2     0.900000E-01   1.00800           0
      1001 MEMB     8        DPPC     C34      CTL2    -0.180000       12.0110           0
      1002 MEMB     8        DPPC     H4X      HAL2     0.900000E-01   1.00800           0
      1003 MEMB     8        DPPC     H4Y      HAL2     0.900000E-01   1.00800           0
      1004 MEMB     8        DPPC     C35      CTL2    -0.180000       12.0110           0
      1005 MEMB     8        DPPC     H5X      HAL2     0.900000E-01   1.00800           0
      1006 MEMB     8        DPPC     H5Y      HAL2     0.900000E-01   1.00800           0
      1007 MEMB     8        DPPC     C36      CTL2    -0.180000       12.0110           0
      1008 MEMB     8        DPPC     H6X      HAL2     0.900000E-01   1.00800           0
      1009 MEMB     8        DPPC     H6Y      HAL2     0.900000E-01   1.00800           0
      1010 MEMB     8        DPPC     C37      CTL2    -0.180000       12.0110           0
      1011 MEMB     8        DPPC     H7X      HAL2     0.900000E-01   1.00800           0
      1012 MEMB     8        DPPC     H7Y      HAL2     0.900000E-01   1.00800           0
      1013 MEMB     8        DPPC     C38      CTL2    -0.180000       12.0110           0
      1014 MEMB     8        DPPC     H8X      HAL2     0.900000E-01   1.00800           0
      1015 MEMB     8        DPPC     H8Y      HAL2     0.900000E-01   1.00800           0
      1016 MEMB     8        DPPC     C39      CTL2    -0.180000       12.0110           0
      1017 MEMB     8        DPPC     H9X      HAL2     0.900000E-01   1.00800           0
      1018 MEMB     8        DPPC     H9Y      HAL2     0.900000E-01   1.00800           0
      1019 MEMB     8        DPPC     C310     CTL2    -0.180000       12.0110           0
      1020 MEMB     8        DPPC     H10X     HAL2     0.900000E-01   1.00800           0
      1021 MEMB     8        DPPC     H10Y     HAL2     0.900000E-01   1.00800           0
      1022 MEMB     8        DPPC     C311     CTL2    -0.180000       12.0110           0
      1023 MEMB     8        DPPC     H11X     HAL2     0.900000E-01   1.00800           0
      1024 MEMB     8        DPPC     H11Y     HAL2     0.900000E-01   1.00800           0
      1025 MEMB     8        DPPC     C312     CTL2    -0.180000       12.0110           0
      1026 MEMB     8        DPPC     H12X     HAL2     0.900000E-01   1.00800           0
      1027 MEMB     8        DPPC     H12Y     HAL2     0.900000E-01   1.00800           0
      1028 MEMB     8        DPPC     C313     CTL2    -0.180000       12.0110           0
      1029 MEMB     8        DPPC     H13X     HAL2     0.900000E-01   1.00800           0
      1030 MEMB     8        DPPC     H13Y     HAL2     0.900000E-01   1.00800           0
      1031 MEMB     8        DPPC     C314     CTL2    -0.180000       12.0110           0
      1032 MEMB     8        DPPC     H14X     HAL2     0.900000E-01   1.00800           0
      1033 MEMB     8        DPPC     H14Y     HAL2     0.900000E-01   1.00800           0
      1034 MEMB     8        DPPC     C315     CTL2    -0.180000       12.0110           0
      1035 MEMB     8        DPPC     H15X     HAL2     0.900000E-01   1.00800           0
      1036 MEMB     8        DPPC     H15Y     HAL2     0.900000E-01   1.00800           0
      1037 MEMB     8        DPPC     C316     CTL3    -0.270000       12.0110           0
      1038 MEMB     8        DPPC     H16X     HAL3     0.900000E-01   1.00800           0
      1039 MEMB     8        DPPC     H16Y     HAL3     0.900000E-01   1.00800           0
      1040 MEMB     8        DPPC     H16Z     HAL3     0.900000E-01   1.00800           0
      1041 MEMB     9        DPPC     N        NTL     -0.600000       14.0070           0
      1042 MEMB     9        DPPC     C13      CTL5    -0.350000       12.0110           0
      1043 MEMB     9        DPPC     H13A     HL       0.250000       1.00800           0
      1044 MEMB     9        DPPC     H13B     HL       0.250000       1.00800           0
      1045 MEMB     9        DPPC     H13C     HL       0.250000       1.00800           0
      1046 MEMB     9        DPPC     C14      CTL5    -0.350000       12.0110           0
      1047 MEMB     9        DPPC     H14A     HL       0.250000       1.00800           0
      1048 MEMB     9        DPPC     H14B     HL       0.250000       1.00800           0
      1049 MEMB     9        DPPC     H14C     HL       0.250000       1.00800           0
      1050 MEMB     9        DPPC     C15      CTL5    -0.350000       12.0110           0
      1051 MEMB     9        DPPC     H15A     HL       0.250000       1.00800           0
      1052 MEMB     9        DPPC     H15B     HL       0.250000       1.00800           0
      1053 MEMB     9        DPPC     H15C     HL       0.250000       1.00800           0
      1054 MEMB     9        DPPC     C12      CTL2    -0.100000       12.0110           0
      1055 MEMB     9        DPPC     H12A     HL       0.250000       1.00800           0
      1056 MEMB     9        DPPC     H12B     HL       0.250000       1.00800           0
      1057 MEMB     9        DPPC     C11      CTL2    -0.800000E-01   12.0110           0
      1058 MEMB     9        DPPC     H11A     HAL2     0.900000E-01   1.00800           0
      1059 MEMB     9        DPPC     H11B     HAL2     0.900000E-01   1.00800           0
      1060 MEMB     9        DPPC     P        PL       1.500000       30.9740           0
      1061 MEMB     9        DPPC     O13      O2L     -0.780000       15.9994           0
      1062 MEMB     9        DPPC     O14      O2L     -0.780000       15.9994           0
      1063 MEMB     9        DPPC     O11      OSLP    -0.570000       15.9994           0
      1064 MEMB     9        DPPC     O12      OSLP    -0.570000       15.9994           0
      1065 MEMB     9        DPPC     C1       CTL2    -0.800000E-01   12.0110           0
      1066 MEMB     9        DPPC     HA       HAL2     0.900000E-01   1.00800           0
      1067 MEMB     9        DPPC     HB       HAL2     0.900000E-01   1.00800           0
      1068 MEMB     9        DPPC     C2       CTL1     0.170000       12.0110           0
      1069 MEMB     9        DPPC     HS       HAL1     0.900000E-01   1.00800           0
      1070 MEMB     9        DPPC     O21      OSL     -0.490000       15.9994           0
      1071 MEMB     9        DPPC     C21      CL       0.900000       12.0110           0
      1072 MEMB     9        DPPC     O22      OBL     -0.630000       15.9994           0
      1073 MEMB     9        DPPC     C22      CTL2    -0.220000       12.0110           0
      1074 MEMB     9        DPPC     H2R      HAL2     0.900000E-01   1.00800           0
      1075 MEMB     9        DPPC     H2S      HAL2     0.900000E-01   1.00800           0
      1076 MEMB     9        DPPC     C3       CTL2     0.800000E-01   12.0110           0
      1077 MEMB     9        DPPC     HX       HAL2     0.900000E-01   1.00800           0
      1078 MEMB     9        DPPC     HY       HAL2     0.900000E-01   1.00800           0
      1079 MEMB     9        DPPC     O31      OSL     -0.490000       15.9994           0
      1080 MEMB     9        DPPC     C31      CL       0.900000       12.0110           0
      1081 MEMB     9        DPPC     O32      OBL     -0.630000       15.9994           0
      1082 MEMB     9        DPPC     C32      CTL2    -0.220000       12.0110           0
      1083 MEMB     9        DPPC     H2X      HAL2     0.900000E-01   1.00800           0
      1084 MEMB     9        DPPC     H2Y      HAL2     0.900000E-01   1.00800           0
      1085 MEMB     9        DPPC     C23      CTL2    -0.180000       12.0110           0
      1086 MEMB     9        DPPC     H3R      HAL2     0.900000E-01   1.00800           0
      1087 MEMB     9        DPPC     H3S      HAL2     0.900000E-01   1.00800           0
      1088 MEMB     9        DPPC     C24      CTL2    -0.180000       12.0110           0
      1089 MEMB     9        DPPC     H4R      HAL2     0.900000E-01   1.00800           0
      1090 MEMB     9        DPPC     H4S      HAL2     0.900000E-01   1.00800           0
      1091 MEMB     9        DPPC     C25      CTL2    -0.180000       12.0110           0
      1092 MEMB     9        DPPC     H5R      HAL2     0.900000E-01   1.00800           0
      1093 MEMB     9        DPPC     H5S      HAL2     0.900000E-01   1.00800           0
      1094 MEMB     9        DPPC     C26      CTL2    -0.180000       12.0110           0
      1095 MEMB     9        DPPC     H6R      HAL2     0.900000E-01   1.00800           0
      1096 MEMB     9        DPPC     H6S      HAL2     0.900000E-01   1.00800           0
      1097 MEMB     9        DPPC     C27      CTL2    -0.180000       12.0110           0
      1098 MEMB     9        DPPC     H7R      HAL2     0.900000E-01   1.00800           0
      1099 MEMB     9        DPPC     H7S      HAL2     0.900000E-01   1.00800           0
      1100 MEMB     9        DPPC     C28      CTL2    -0.180000       12.0110           0
      1101 MEMB     9        DPPC     H8R      HAL2     0.900000E-01   1.00800           0
      1102 MEMB     9        DPPC     H8S      HAL2     0.900000E-01   1.00800           0
      1103 MEMB     9        DPPC     C29      CTL2    -0.180000       12.0110           0
      1104 MEMB     9        DPPC     H9R      HAL2     0.900000E-01   1.00800           0
      1105 MEMB     9        DPPC     H9S      HAL2     0.900000E-01   1.00800           0
      1106 MEMB     9        DPPC     C210     CTL2    -0.180000       12.0110           0
      1107 MEMB     9        DPPC     H10R     HAL2     0.900000E-01   1.00800           0
      1108 MEMB     9        DPPC     H10S     HAL2     0.900000E-01   1.00800           0
      1109 MEMB     9        DPPC     C211     CTL2    -0.180000       12.0110           0
      1110 MEMB     9        DPPC     H11R     HAL2     0.900000E-01   1.00800           0
      1111 MEMB     9        DPPC     H11S     HAL2     0.900000E-01   1.00800           0
      1112 MEMB     9        DPPC     C212     CTL2    -0.180000       12.0110           0
      1113 MEMB     9        DPPC     H12R     HAL2     0.900000E-01   1.00800           0
      1114 MEMB     9        DPPC     H12S     HAL2     0.900000E-01   1.00800           0
      1115 MEMB     9        DPPC     C213     CTL2    -0.180000       12.0110           0
      1116 MEMB     9        DPPC     H13R     HAL2     0.900000E-01   1.00800           0
      1117 MEMB     9        DPPC     H13S     HAL2     0.900000E-01   1.00800           0
      1118 MEMB     9        DPPC     C214     CTL2    -0.180000       12.0110           0
      1119 MEMB     9        DPPC     H14R     HAL2     0.900000E-01   1.00800           0
      1120 MEMB     9        DPPC     H14S     HAL2     0.900000E-01   1.00800           0
      1121 MEMB     9        DPPC     C215     CTL2    -0.180000       12.0110           0
      1122 MEMB     9        DPPC     H15R     HAL2     0.900000E-01   1.00800           0
      1123 MEMB     9        DPPC     H15S     HAL2     0.900000E-01   1.00800           0
      1124 MEMB     9        DPPC     C216     CTL3    -0.270000       12.0110           0
      1125 MEMB     9        DPPC     H16R     HAL3     0.900000E-01   1.00800           0
      1126 MEMB     9        DPPC     H16S     HAL3     0.900000E-01   1.00800           0
      1127 MEMB     9        DPPC     H16T     HAL3     0.900000E-01   1.00800           0
      1128 MEMB     9        DPPC     C33      CTL2    -0.180000       12.0110           0
      1129 MEMB     9        DPPC     H3X      HAL2     0.900000E-01   1.00800           0
      1130 MEMB     9        DPPC     H3Y      HAL2     0.900000E-01   1.00800           0
      1131 MEMB     9        DPPC     C34      CTL2    -0.180000       12.0110           0
      1132 MEMB     9        DPPC     H4X      HAL2     0.900000E-01   1.00800           0
      1133 MEMB     9        DPPC     H4Y      HAL2     0.900000E-01   1.00800           0
      1134 MEMB     9        DPPC     C35      CTL2    -0.180000       12.0110           0
      1135 MEMB     9        DPPC     H5X      HAL2     0.900000E-01   1.00800           0
      1136 MEMB     9        DPPC     H5Y      HAL2     0.900000E-01   1.00800           0
      1137 MEMB     9        DPPC     C36      CTL2    -0.180000       12.0110           0
      1138 MEMB     9        DPPC     H6X      HAL2     0.900000E-01   1.00800           0
      1139 MEMB     9        DPPC     H6Y      HAL2     0.900000E-01   1.00800           0
      1140 MEMB     9        DPPC     C37      CTL2    -0.180000       12.0110           0
      1141 MEMB     9        DPPC     H7X      HAL2     0.900000E-01   1.00800           0
      1142 MEMB     9        DPPC     H7Y      HAL2     0.900000E-01   1.00800           0
      1143 MEMB     9        DPPC     C38      CTL2    -0.180000       12.0110           0
      1144 MEMB     9        DPPC     H8X      HAL2     0.900000E-01   1.00800           0
      1145 MEMB     9        DPPC     H8Y      HAL2     0.900000E-01   1.00800           0
      1146 MEMB     9        DPPC     C39      CTL2    -0.180000       12.0110           0
      1147 MEMB     9        DPPC     H9X      HAL2     0.900000E-01   1.00800           0
      1148 MEMB     9        DPPC     H9Y      HAL2     0.900000E-01   1.00800           0
      1149 MEMB     9        DPPC     C310     CTL2    -0.180000       12.0110           0
      1150 MEMB     9        DPPC     H10X     HAL2     0.900000E-01   1.00800           0
      1151 MEMB     9        DPPC     H10Y     HAL2     0.900000E-01   1.00800           0
      1152 MEMB     9        DPPC     C311     CTL2    -0.180000       12.0110           0
      1153 MEMB     9        DPPC     H11X     HAL2     0.900000E-01   1.00800           0
      1154 MEMB     9        DPPC     H11Y     HAL2     0.900000E-01   1.00800           0
      1155 MEMB     9        DPPC     C312     CTL2    -0.180000       12.0110           0
      1156 MEMB     9        DPPC     H12X     HAL2     0.900000E-01   1.00800           0
      1157 MEMB     9        DPPC     H12Y     HAL2     0.900000E-01   1.00800           0
      1158 MEMB     9        DPPC     C313     CTL2    -0.180000       12.0110           0
      1159 MEMB     9        DPPC     H13X     HAL2     0.900000E-01   1.00800           0
      1160 MEMB     9        DPPC     H13Y     HAL2     0.900000E-01   1.00800           0
      1161 MEMB     9        DPPC     C314     CTL2    -0.180000       12.0110           0
      1162 MEMB     9        DPPC     H14X     HAL2     0.900000E-01   1.00800           0
      1163 MEMB     9        DPPC     H14Y     HAL2     0.900000E-01   1.00800           0
      1164 MEMB     9        DPPC     C315     CTL2    -0.180000       12.0110           0
      1165 MEMB     9        DPPC     H15X     HAL2     0.900000E-01   1.00800           0
      1166 MEMB     9        DPPC     H15Y     HAL2     0.900000E-01   1.00800           0
      1167 MEMB     9        DPPC     C316     CTL3    -0.270000       12.0110           0
      1168 MEMB     9        DPPC     H16X     HAL3     0.900000E-01   1.00800           0
      1169 MEMB     9        DPPC     H16Y     HAL3     0.900000E-01   1.00800           0
      1170 MEMB     9        DPPC     H16Z     HAL3     0.900000E-01   1.00800           0
      1171 MEMB     10       DPPC     N        NTL     -0.600000       14.0070           0
      1172 MEMB     10       DPPC     C13      CTL5    -0.350000       12.0110           0
      1173 MEMB     10       DPPC     H13A     HL       0.250000       1.00800           0
      1174 MEMB     10       DPPC     H13B     HL       0.250000       1.00800           0
      1175 MEMB     10       DPPC     H13C     HL       0.250000       1.00800           0
      1176 MEMB     10       DPPC     C14      CTL5    -0.350000       12.0110           0
      1177 MEMB     10       DPPC     H14A     HL       0.250000       1.00800           0
      1178 MEMB     10       DPPC     H14B     HL       0.250000       1.00800           0
      1179 MEMB     10       DPPC     H14C     HL       0.250000       1.00800           0
      1180 MEMB     10       DPPC     C15      CTL5    -0.350000       12.0110           0
      1181 MEMB     10       DPPC     H15A     HL       0.250000       1.00800           0
      1182 MEMB     10       DPPC     H15B     HL       0.250000       1.00800           0
      1183 MEMB     10       DPPC     H15C     HL       0.250000       1.00800           0
      1184 MEMB     10       DPPC     C12      CTL2    -0.100000       12.0110           0
      1185 MEMB     10       DPPC     H12A     HL       0.250000       1.00800           0
      1186 MEMB     10       DPPC     H12B     HL       0.250000       1.00800           0
      1187 MEMB     10       DPPC     C11      CTL2    -0.800000E-01   12.0110           0
      1188 MEMB     10       DPPC     H11A     HAL2     0.900000E-01   1.00800           0
      1189 MEMB     10       DPPC     H11B     HAL2     0.900000E-01   1.00800           0
      1190 MEMB     10       DPPC     P        PL       1.500000       30.9740           0
      1191 MEMB     10       DPPC     O13      O2L     -0.780000       15.9994           0
      1192 MEMB     10       DPPC     O14      O2L     -0.780000       15.9994           0
      1193 MEMB     10       DPPC     O11      OSLP    -0.570000       15.9994           0
      1194 MEMB     10       DPPC     O12      OSLP    -0.570000       15.9994           0
      1195 MEMB     10       DPPC     C1       CTL2    -0.800000E-01   12.0110           0
      1196 MEMB     10       DPPC     HA       HAL2     0.900000E-01   1.00800           0
      1197 MEMB     10       DPPC     HB       HAL2     0.900000E-01   1.00800           0
      1198 MEMB     10       DPPC     C2       CTL1     0.170000       12.0110           0
      1199 MEMB     10       DPPC     HS       HAL1     0.900000E-01   1.00800           0
      1200 MEMB     10       DPPC     O21      OSL     -0.490000       15.9994           0
      1201 MEMB     10       DPPC     C21      CL       0.900000       12.0110           0
      1202 MEMB     10       DPPC     O22      OBL     -0.630000       15.9994           0
      1203 MEMB     10       DPPC     C22      CTL2    -0.220000       12.0110           0
      1204 MEMB     10       DPPC     H2R      HAL2     0.900000E-01   1.00800           0
      1205 MEMB     10       DPPC     H2S      HAL2     0.900000E-01   1.00800           0
      1206 MEMB     10       DPPC     C3       CTL2     0.800000E-01   12.0110           0
      1207 MEMB     10       DPPC     HX       HAL2     0.900000E-01   1.00800           0
      1208 MEMB     10       DPPC     HY       HAL2     0.900000E-01   1.00800           0
      1209 MEMB     10       DPPC     O31      OSL     -0.490000       15.9994           0
      1210 MEMB     10       DPPC     C31      CL       0.900000       12.0110           0
      1211 MEMB     10       DPPC     O32      OBL     -0.630000       15.9994           0
      1212 MEMB     10       DPPC     C32      CTL2    -0.220000       12.0110           0
      1213 MEMB     10       DPPC     H2X      HAL2     0.900000E-01   1.00800           0
      1214 MEMB     10       DPPC     H2Y      HAL2     0.900000E-01   1.00800           0
      1215 MEMB     10       DPPC     C23      CTL2    -0.180000       12.0110           0
      1216 MEMB     10       DPPC     H3R      HAL2     0.900000E-01   1.00800           0
      1217 MEMB     10       DPPC     H3S      HAL2     0.900000E-01   1.00800           0
      1218 MEMB     10       DPPC     C24      CTL2    -0.180000       12.0110           0
      1219 MEMB     10       DPPC     H4R      HAL2     0.900000E-01   1.00800           0
      1220 MEMB     10       DPPC     H4S      HAL2     0.900000E-01   1.00800           0
      1221 MEMB     10       DPPC     C25      CTL2    -0.180000       12.0110           0
      1222 MEMB     10       DPPC     H5R      HAL2     0.900000E-01   1.00800           0
      1223 MEMB     10       DPPC     H5S      HAL2     0.900000E-01   1.00800           0
      1224 MEMB     10       DPPC     C26      CTL2    -0.180000       12.0110           0
      1225 MEMB     10       DPPC     H6R      HAL2     0.900000E-01   1.00800           0
      1226 MEMB     10       DPPC     H6S      HAL2     0.900000E-01   1.00800           0
      1227 MEMB     10       DPPC     C27      CTL2    -0.180000       12.0110           0
      1228 MEMB     10       DPPC     H7R      HAL2     0.900000E-01   1.00800           0
      1229 MEMB     10       DPPC     H7S      HAL2     0.900000E-01   1.00800           0
      1230 MEMB     10       DPPC     C28      CTL2    -0.180000       12.0110           0
      1231 MEMB     10       DPPC     H8R      HAL2     0.900000E-01   1.00800           0
      1232 MEMB     10       DPPC     H8S      HAL2     0.900000E-01   1.00800           0
      1233 MEMB     10       DPPC     C29      CTL2    -0.180000       12.0110           0
      1234 MEMB     10       DPPC     H9R      HAL2     0.900000E-01   1.00800           0
      1235 MEMB     10       DPPC     H9S      HAL2     0.900000E-01   1.00800           0
      1236 MEMB     10       DPPC     C210     CTL2    -0.180000       12.0110           0
      1237 MEMB     10       DPPC     H10R     HAL2     0.900000E-01   1.00800           0
      1238 MEMB     10       DPPC     H10S     HAL2     0.900000E-01   1.00800           0
      1239 MEMB     10       DPPC     C211     CTL2    -0.180000       12.0110           0
      1240 MEMB     10       DPPC     H11R     HAL2     0.900000E-01   1.00800           0
      1241 MEMB     10       DPPC     H11S     HAL2     0.900000E-01   1.00800           0
      1242 MEMB     10       DPPC     C212     CTL2    -0.180000       12.0110           0
      1243 MEMB     10       DPPC     H12R     HAL2     0.900000E-01   1.00800           0
      1244 MEMB     10       DPPC     H12S     HAL2     0.900000E-01   1.00800           0
      1245 MEMB     10       DPPC     C213     CTL2    -0.180000       12.0110           0
      1246 MEMB     10       DPPC     H13R     HAL2     0.900000E-01   1.00800           0
      1247 MEMB     10       DPPC     H13S     HAL2     0.900000E-01   1.00800           0
      1248 MEMB     10       DPPC     C214     CTL2    -0.180000       12.0110           0
      1249 MEMB     10       DPPC     H14R     HAL2     0.900000E-01   1.00800           0
      1250 MEMB     10       DPPC     H14S     HAL2     0.900000E-01   1.00800           0
      1251 MEMB     10       DPPC     C215     CTL2    -0.180000       12.0110           0
      1252 MEMB     10       DPPC     H15R     HAL2     0.900000E-01   1.00800           0
      1253 MEMB     10       DPPC     H15S     HAL2     0.900000E-01   1.00800           0
      1254 MEMB     10       DPPC     C216     CTL3    -0.270000       12.0110           0
      1255 MEMB     10       DPPC     H16R     HAL3     0.900000E-01   1.00800           0
      1256 MEMB     10       DPPC     H16S     HAL3     0.900000E-01   1.00800           0
      1257 MEMB     10       DPPC     H16T     HAL3     0.900000E-01   1.00800           0
      1258 MEMB     10       DPPC     C33      CTL2    -0.180000       12.0110           0
      1259 MEMB     10       DPPC     H3X      HAL2     0.900000E-01   1.00800           0
      1260 MEMB     10       DPPC     H3Y      HAL2     0.900000E-01   1.00800           0
      1261 MEMB     10       DPPC     C34      CTL2    -0.180000       12.0110           0
      1262 MEMB     10       DPPC     H4X      HAL2     0.900000E-01   1.00800           0
      1263 MEMB     10       DPPC     H4Y      HAL2     0.900000E-01   1.00800           0
      1264 MEMB     10       DPPC     C35      CTL2    -0.180000       12.0110           0
      1265 MEMB     10       DPPC     H5X      HAL2     0.900000E-01   1.00800           0
      1266 MEMB     10       DPPC     H5Y      HAL2     0.900000E-01   1.00800           0
      1267 MEMB     10       DPPC     C36      CTL2    -0.180000       12.0110           0
      1268 MEMB     10       DPPC     H6X      HAL2     0.900000E-01   1.00800           0
      1269 MEMB     10       DPPC     H6Y      HAL2     0.900000E-01   1.00800           0
      1270 MEMB     10       DPPC     C37      CTL2    -0.180000       12.0110           0
      1271 MEMB     10       DPPC     H7X      HAL2     0.900000E-01   1.00800           0
      1272 MEMB     10       DPPC     H7Y      HAL2     0.900000E-01   1.00800           0
      1273 MEMB     10       DPPC     C38      CTL2    -0.180000       12.0110           0
      1274 MEMB     10       DPPC     H8X      HAL2     0.900000E-01   1.00800           0
      1275 MEMB     10       DPPC     H8Y      HAL2     0.900000E-01   1.00800           0
      1276 MEMB     10       DPPC     C39      CTL2    -0.180000       12.0110           0
      1277 MEMB     10       DPPC     H9X      HAL2     0.900000E-01   1.00800           0
      1278 MEMB     10       DPPC     H9Y      HAL2     0.900000E-01   1.00800           0
      1279 MEMB     10       DPPC     C310     CTL2    -0.180000       12.0110           0
      1280 MEMB     10       DPPC     H10X     HAL2     0.900000E-01   1.00800           0
      1281 MEMB     10       DPPC     H10Y     HAL2     0.900000E-01   1.00800           0
      1282 MEMB     10       DPPC     C311     CTL2    -0.180000       12.0110           0
      1283 MEMB     10       DPPC     H11X     HAL2     0.900000E-01   1.00800           0
      1284 MEMB     10       DPPC     H11Y     HAL2     0.900000E-01   1.00800           0
      1285 MEMB     10       DPPC     C312     CTL2    -0.180000       12.0110           0
      1286 MEMB     10       DPPC     H12X     HAL2     0.900000E-01   1.00800           0
      1287 MEMB     10       DPPC     H12Y     HAL2     0.900000E-01   1.00800           0
      1288 MEMB     10       DPPC     C313     CTL2    -0.180000       12.0110           0
      1289 MEMB     10       DPPC     H13X     HAL2     0.900000E-01   1.00800           0
      1290 MEMB     10       DPPC     H13Y     HAL2     0.900000E-01   1.00800           0
      1291 MEMB     10       DPPC     C314     CTL2    -0.180000       12.0110           0
      1292 MEMB     10       DPPC     H14X     HAL2     0.900000E-01   1.00800           0
      1293 MEMB     10       DPPC     H14Y     HAL2     0.900000E-01   1.00800           0
      1294 MEMB     10       DPPC     C315     CTL2    -0.180000       12.0110           0
      1295 MEMB     10       DPPC     H15X     HAL2     0.900000E-01   1.00800           0
      1296 MEMB     10       DPPC     H15Y     HAL2     0.900000E-01   1.00800           0
      1297 MEMB     10       DPPC     C316     CTL3    -0.270000       12.0110           0
      1298 MEMB     10       DPPC     H16X     HAL3     0.900000E-01   1.00800           0
      1299 MEMB     10       DPPC     H16Y     HAL3     0.900000E-01   1.00800           0
      1300 MEMB     10       DPPC     H16Z     HAL3     0.900000E-01   1.00800           0
      1301 MEMB     11       DPPC     N        NTL     -0.600000       14.0070           0
      1302 MEMB     11       DPPC     C13      CTL5    -0.350000       12.0110           0
      1303 MEMB     11       DPPC     H13A     HL       0.250000       1.00800           0
      1304 MEMB     11       DPPC     H13B     HL       0.250000       1.00800           0
      1305 MEMB     11       DPPC     H13C     HL       0.250000       1.00800           0
      1306 MEMB     11       DPPC     C14      CTL5    -0.350000       12.0110           0
      1307 MEMB     11       DPPC     H14A     HL       0.250000       1.00800           0
      1308 MEMB     11       DPPC     H14B     HL       0.250000       1.00800           0
      1309 MEMB     11       DPPC     H14C     HL       0.250000       1.00800           0
      1310 MEMB     11       DPPC     C15      CTL5    -0.350000       12.0110           0
      1311 MEMB     11       DPPC     H15A     HL       0.250000       1.00800           0
      1312 MEMB     11       DPPC     H15B     HL       0.250000       1.00800           0
      1313 MEMB     11       DPPC     H15C     HL       0.250000       1.00800           0
      1314 MEMB     11       DPPC     C12      CTL2    -0.100000       12.0110           0
      1315 MEMB     11       DPPC     H12A     HL       0.250000       1.00800           0
      1316 MEMB     11       DPPC     H12B     HL       0.250000       1.00800           0
      1317 MEMB     11       DPPC     C11      CTL2    -0.800000E-01   12.0110           0
      1318 MEMB     11       DPPC     H11A     HAL2     0.900000E-01   1.00800           0
      1319 MEMB     11       DPPC     H11B     HAL2     0.900000E-01   1.00800           0
      1320 MEMB     11       DPPC     P        PL       1.500000       30.9740           0
      1321 MEMB     11       DPPC     O13      O2L     -0.780000       15.9994           0
      1322 MEMB     11       DPPC     O14      O2L     -0.780000       15.9994           0
      1323 MEMB     11       DPPC     O11      OSLP    -0.570000       15.9994           0
      1324 MEMB     11       DPPC     O12      OSLP    -0.570000       15.9994           0
      1325 MEMB     11       DPPC     C1       CTL2    -0.800000E-01   12.0110           0
      1326 MEMB     11       DPPC     HA       HAL2     0.900000E-01   1.00800           0
      1327 MEMB     11       DPPC     HB       HAL2     0.900000E-01   1.00800           0
      1328 MEMB     11       DPPC     C2       CTL1     0.170000       12.0110           0
      1329 MEMB     11       DPPC     HS       HAL1     0.900000E-01   1.00800           0
      1330 MEMB     11       DPPC     O21      OSL     -0.490000       15.9994           0
      1331 MEMB     11       DPPC     C21      CL       0.900000       12.0110           0
      1332 MEMB     11       DPPC     O22      OBL     -0.630000       15.9994           0
      1333 MEMB     11       DPPC     C22      CTL2    -0.220000       12.0110           0
      1334 MEMB     11       DPPC     H2R      HAL2     0.900000E-01   1.00800           0
      1335 MEMB     11       DPPC     H2S      HAL2     0.900000E-01   1.00800           0
      1336 MEMB     11       DPPC     C3       CTL2     0.800000E-01   12.0110           0
      1337 MEMB     11       DPPC     HX       HAL2     0.900000E-01   1.00800           0
      1338 MEMB     11       DPPC     HY       HAL2     0.900000E-01   1.00800           0
      1339 MEMB     11       DPPC     O31      OSL     -0.490000       15.9994           0
      1340 MEMB     11       DPPC     C31      CL       0.900000       12.0110           0
      1341 MEMB     11       DPPC     O32      OBL     -0.630000       15.9994           0
      1342 MEMB     11       DPPC     C32      CTL2    -0.220000       12.0110           0
      1343 MEMB     11       DPPC     H2X      HAL2     0.900000E-01   1.00800           0
      1344 MEMB     11       DPPC     H2Y      HAL2     0.900000E-01   1.00800           0
      1345 MEMB     11       DPPC     C23      CTL2    -0.180000       12.0110           0
      1346 MEMB     11       DPPC     H3R      HAL2     0.900000E-01   1.00800           0
      1347 MEMB     11       DPPC     H3S      HAL2     0.900000E-01   1.00800           0
      1348 MEMB     11       DPPC     C24      CTL2    -0.180000       12.0110           0
      1349 MEMB     11       DPPC     H4R      HAL2     0.900000E-01   1.00800           0
      1350 MEMB     11       DPPC     H4S      HAL2     0.900000E-01   1.00800           0
      1351 MEMB     11       DPPC     C25      CTL2    -0.180000       12.0110           0
      1352 MEMB     11       DPPC     H5R      HAL2     0.900000E-01   1.00800           0
      1353 MEMB     11       DPPC     H5S      HAL2     0.900000E-01   1.00800           0
      1354 MEMB     11       DPPC     C26      CTL2    -0.180000       12.0110           0
      1355 MEMB     11       DPPC     H6R      HAL2     0.900000E-01   1.00800           0
      1356 MEMB     11       DPPC     H6S      HAL2     0.900000E-01   1.00800           0
      1357 MEMB     11       DPPC     C27      CTL2    -0.180000       12.0110           0
      1358 MEMB     11       DPPC     H7R      HAL2     0.900000E-01   1.00800           0
      1359 MEMB     11       DPPC     H7S      HAL2     0.900000E-01   1.00800           0
      1360 MEMB     11       DPPC     C28      CTL2    -0.180000       12.0110           0
      1361 MEMB     11       DPPC     H8R      HAL2     0.900000E-01   1.00800           0
      1362 MEMB     11       DPPC     H8S      HAL2     0.900000E-01   1.00800           0
      1363 MEMB     11       DPPC     C29      CTL2    -0.180000       12.0110           0
      1364 MEMB     11       DPPC     H9R      HAL2     0.900000E-01   1.00800           0
      1365 MEMB     11       DPPC     H9S      HAL2     0.900000E-01   1.00800           0
      1366 MEMB     11       DPPC     C210     CTL2    -0.180000       12.0110           0
      1367 MEMB     11       DPPC     H10R     HAL2     0.900000E-01   1.00800           0
      1368 MEMB     11       DPPC     H10S     HAL2     0.900000E-01   1.00800           0
      1369 MEMB     11       DPPC     C211     CTL2    -0.180000       12.0110           0
      1370 MEMB     11       DPPC     H11R     HAL2     0.900000E-01   1.00800           0
      1371 MEMB     11       DPPC     H11S     HAL2     0.900000E-01   1.00800           0
      1372 MEMB     11       DPPC     C212     CTL2    -0.180000       12.0110           0
      1373 MEMB     11       DPPC     H12R     HAL2     0.900000E-01   1.00800           0
      1374 MEMB     11       DPPC     H12S     HAL2     0.900000E-01   1.00800           0
      1375 MEMB     11       DPPC     C213     CTL2    -0.180000       12.0110           0
      1376 MEMB     11       DPPC     H13R     HAL2     0.900000E-01   1.00800           0
      1377 MEMB     11       DPPC     H13S     HAL2     0.900000E-01   1.00800           0
      1378 MEMB     11       DPPC     C214     CTL2    -0.180000       12.0110           0
      1379 MEMB     11       DPPC     H14R     HAL2     0.900000E-01   1.00800           0
      1380 MEMB     11       DPPC     H14S     HAL2     0.900000E-01   1.00800           0
      1381 MEMB     11       DPPC     C215     CTL2    -0.180000       12.0110           0
      1382 MEMB     11       DPPC     H15R     HAL2     0.900000E-01   1.00800           0
      1383 MEMB     11       DPPC     H15S     HAL2     0.900000E-01   1.00800           0
      1384 MEMB     11       DPPC     C216     CTL3    -0.270000       12.0110           0
      1385 MEMB     11       DPPC     H16R     HAL3     0.900000E-01   1.00800           0
      1386 MEMB     11       DPPC     H16S     HAL3     0.900000E-01   1.00800           0
      1387 MEMB     11       DPPC     H16T     HAL3     0.900000E-01   1.00800           0
      1388 MEMB     11       DPPC     C33      CTL2    -0.180000       12.0110           0
      1389 MEMB     11       DPPC     H3X      HAL2     0.900000E-01   1.00800           0
      1390 MEMB     11       DPPC     H3Y      HAL2     0.900000E-01   1.00800           0
      1391 MEMB     11       DPPC     C34      CTL2    -0.180000       12.0110           0
      1392 MEMB     11       DPPC     H4X      HAL2     0.900000E-01   1.00800           0
      1393 MEMB     11       DPPC     H4Y      HAL2     0.900000E-01   1.00800           0
      1394 MEMB     11       DPPC     C35      CTL2    -0.180000       12.0110           0
      1395 MEMB     11       DPPC     H5X      HAL2     0.900000E-01   1.00800           0
      1396 MEMB     11       DPPC     H5Y      HAL2     0.900000E-01   1.00800           0
      1397 MEMB     11       DPPC     C36      CTL2    -0.180000       12.0110           0
      1398 MEMB     11       DPPC     H6X      HAL2     0.900000E-01   1.00800           0
      1399 MEMB     11       DPPC     H6Y      HAL2     0.900000E-01   1.00800           0
      1400 MEMB     11       DPPC     C37      CTL2    -0.180000       12.0110           0
      1401 MEMB     11       DPPC     H7X      HAL2     0.900000E-01   1.00800           0
      1402 MEMB     11       DPPC     H7Y      HAL2     0.900000E-01   1.00800           0
      1403 MEMB     11       DPPC     C38      CTL2    -0.180000       12.0110           0
      1404 MEMB     11       DPPC     H8X      HAL2     0.900000E-01   1.00800           0
      1405 MEMB     11       DPPC     H8Y      HAL2     0.900000E-01   1.00800           0
      1406 MEMB     11       DPPC     C39      CTL2    -0.180000       12.0110           0
      1407 MEMB     11       DPPC     H9X      HAL2     0.900000E-01   1.00800           0
      1408 MEMB     11       DPPC     H9Y      HAL2     0.900000E-01   1.00800           0
      1409 MEMB     11       DPPC     C310     CTL2    -0.180000       12.0110           0
      1410 MEMB     11       DPPC     H10X     HAL2     0.900000E-01   1.00800           0
      1411 MEMB     11       DPPC     H10Y     HAL2     0.900000E-01   1.00800           0
      1412 MEMB     11       DPPC     C311     CTL2    -0.180000       12.0110           0
      1413 MEMB     11       DPPC     H11X     HAL2     0.900000E-01   1.00800           0
      1414 MEMB     11       DPPC     H11Y     HAL2     0.900000E-01   1.00800           0
      1415 MEMB     11       DPPC     C312     CTL2    -0.180000       12.0110           0
      1416 MEMB     11       DPPC     H12X     HAL2     0.900000E-01   1.00800           0
      1417 MEMB     11       DPPC     H12Y     HAL2     0.900000E-01   1.00800           0
      1418 MEMB     11       DPPC     C313     CTL2    -0.180000       12.0110           0
      1419 MEMB     11       DPPC     H13X     HAL2     0.900000E-01   1.00800           0
      1420 MEMB     11       DPPC     H13Y     HAL2     0.900000E-01   1.00800           0
      1421 MEMB     11       DPPC     C314     CTL2    -0.180000       12.0110           0
      1422 MEMB     11       DPPC     H14X     HAL2     0.900000E-01   1.00800           0
      1423 MEMB     11       DPPC     H14Y     HAL2     0.900000E-01   1.00800           0
      1424 MEMB     11       DPPC     C315     CTL2    -0.180000       12.0110           0
      1425 MEMB     11       DPPC     H15X     HAL2     0.900000E-01   1.00800           0
      1426 MEMB     11       DPPC     H15Y     HAL2     0.900000E-01   1.00800           0
      1427 MEMB     11       DPPC     C316     CTL3    -0.270000       12.0110           0
      1428 MEMB     11       DPPC     H16X     HAL3     0.900000E-01   1.00800           0
      1429 MEMB     11       DPPC     H16Y     HAL3     0.900000E-01   1.00800           0
      1430 MEMB     11       DPPC     H16Z     HAL3     0.900000E-01   1.00800           0
      1431 MEMB     12       DPPC     N        NTL     -0.600000       14.0070           0
      1432 MEMB     12       DPPC     C13      CTL5    -0.350000       12.0110           0
      1433 MEMB     12       DPPC     H13A     HL       0.250000       1.00800           0
      1434 MEMB     12       DPPC     H13B     HL       0.250000       1.00800           0
      1435 MEMB     12       DPPC     H13C     HL       0.250000       1.00800           0
      1436 MEMB     12       DPPC     C14      CTL5    -0.350000       12.0110           0
      1437 MEMB     12       DPPC     H14A     HL       0.250000       1.00800           0
      1438 MEMB     12       DPPC     H14B     HL       0.250000       1.00800           0
      1439 MEMB     12       DPPC     H14C     HL       0.250000       1.00800           0
      1440 MEMB     12       DPPC     C15      CTL5    -0.350000       12.0110           0
      1441 MEMB     12       DPPC     H15A     HL       0.250000       1.00800           0
      1442 MEMB     12       DPPC     H15B     HL       0.250000       1.00800           0
      1443 MEMB     12       DPPC     H15C     HL       0.250000       1.00800           0
      1444 MEMB     12       DPPC     C12      CTL2    -0.100000       12.0110           0
      1445 MEMB     12       DPPC     H12A     HL       0.250000       1.00800           0
      1446 MEMB     12       DPPC     H12B     HL       0.250000       1.00800           0
      1447 MEMB     12       DPPC     C11      CTL2    -0.800000E-01   12.0110           0
      1448 MEMB     12       DPPC     H11A     HAL2     0.900000E-01   1.00800           0
      1449 MEMB     12       DPPC     H11B     HAL2     0.900000E-01   1.00800           0
      1450 MEMB     12       DPPC     P        PL       1.500000       30.9740           0
      1451 MEMB     12       DPPC     O13      O2L     -0.780000       15.9994           0
      1452 MEMB     12       DPPC     O14      O2L     -0.780000       15.9994           0
      1453 MEMB     12       DPPC     O11      OSLP    -0.570000       15.9994           0
      1454 MEMB     12       DPPC     O12      OSLP    -0.570000       15.9994           0
      1455 MEMB     12       DPPC     C1       CTL2    -0.800000E-01   12.0110           0
      1456 MEMB     12       DPPC     HA       HAL2     0.900000E-01   1.00800           0
      1457 MEMB     12       DPPC     HB       HAL2     0.900000E-01   1.00800           0
      1458 MEMB     12       DPPC     C2       CTL1     0.170000       12.0110           0
      1459 MEMB     12       DPPC     HS       HAL1     0.900000E-01   1.00800           0
      1460 MEMB     12       DPPC     O21      OSL     -0.490000       15.9994           0
      1461 MEMB     12       DPPC     C21      CL       0.900000       12.0110           0
      1462 MEMB     12       DPPC     O22      OBL     -0.630000       15.9994           0
      1463 MEMB     12       DPPC     C22      CTL2    -0.220000       12.0110           0
      1464 MEMB     12       DPPC     H2R      HAL2     0.900000E-01   1.00800           0
      1465 MEMB     12       DPPC     H2S      HAL2     0.900000E-01   1.00800           0
      1466 MEMB     12       DPPC     C3       CTL2     0.800000E-01   12.0110           0
      1467 MEMB     12       DPPC     HX       HAL2     0.900000E-01   1.00800           0
      1468 MEMB     12       DPPC     HY       HAL2     0.900000E-01   1.00800           0
      1469 MEMB     12       DPPC     O31      OSL     -0.490000       15.9994           0
      1470 MEMB     12       DPPC     C31      CL       0.900000       12.0110           0
      1471 MEMB     12       DPPC     O32      OBL     -0.630000       15.9994           0
      1472 MEMB     12       DPPC     C32      CTL2    -0.220000       12.0110           0
      1473 MEMB     12       DPPC     H2X      HAL2     0.900000E-01   1.00800           0
      1474 MEMB     12       DPPC     H2Y      HAL2     0.900000E-01   1.00800           0
      1475 MEMB     12       DPPC     C23      CTL2    -0.180000       12.0110           0
      1476 MEMB     12       DPPC     H3R      HAL2     0.900000E-01   1.00800           0
      1477 MEMB     12       DPPC     H3S      HAL2     0.900000E-01   1.00800           0
      1478 MEMB     12       DPPC     C24      CTL2    -0.180000       12.0110           0
      1479 MEMB     12       DPPC     H4R      HAL2     0.900000E-01   1.00800           0
      1480 MEMB     12       DPPC     H4S      HAL2     0.900000E-01   1.00800           0
      1481 MEMB     12       DPPC     C25      CTL2    -0.180000       12.0110           0
      1482 MEMB     12       DPPC     H5R      HAL2     0.900000E-01   1.00800           0
      1483 MEMB     12       DPPC     H5S      HAL2     0.900000E-01   1.00800           0
      1484 MEMB     12       DPPC     C26      CTL2    -0.180000       12.0110           0
      1485 MEMB     12       DPPC     H6R      HAL2     0.900000E-01   1.00800           0
      1486 MEMB     12       DPPC     H6S      HAL2     0.900000E-01   1.00800           0
      1487 MEMB     12       DPPC     C27      CTL2    -0.180000       12.0110           0
      1488 MEMB     12       DPPC     H7R      HAL2     0.900000E-01   1.00800           0
      1489 MEMB     12       DPPC     H7S      HAL2     0.900000E-01   1.00800           0
      1490 MEMB     12       DPPC     C28      CTL2    -0.180000       12.0110           0
      1491 MEMB     12       DPPC     H8R      HAL2     0.900000E-01   1.00800           0
      1492 MEMB     12       DPPC     H8S      HAL2     0.900000E-01   1.00800           0
      1493 MEMB     12       DPPC     C29      CTL2    -0.180000       12.0110           0
      1494 MEMB     12       DPPC     H9R      HAL2     0.900000E-01   1.00800           0
      1495 MEMB     12       DPPC     H9S      HAL2     0.900000E-01   1.00800           0
      1496 MEMB     12       DPPC     C210     CTL2    -0.180000       12.0110           0
      1497 MEMB     12       DPPC     H10R     HAL2     0.900000E-01   1.00800           0
      1498 MEMB     12       DPPC     H10S     HAL2     0.900000E-01   1.00800           0
      1499 MEMB     12       DPPC     C211     CTL2    -0.180000       12.0110           0
      1500 MEMB     12       DPPC     H11R     HAL2     0.900000E-01   1.00800           0
      1501 MEMB     12       DPPC     H11S     HAL2     0.900000E-01   1.00800           0
      1502 MEMB     12       DPPC     C212     CTL2    -0.180000       12.0110           0
      1503 MEMB     12       DPPC     H12R     HAL2     0.900000E-01   1.00800           0
      1504 MEMB     12       DPPC     H12S     HAL2     0.900000E-01   1.00800           0
      1505 MEMB     12       DPPC     C213     CTL2    -0.180000       12.0110           0
      1506 MEMB     12       DPPC     H13R     HAL2     0.900000E-01   1.00800           0
      1507 MEMB     12       DPPC     H13S     HAL2     0.900000E-01   1.00800           0
      1508 MEMB     12       DPPC     C214     CTL2    -0.180000       12.0110           0
      1509 MEMB     12       DPPC     H14R     HAL2     0.900000E-01   1.00800           0
      1510 MEMB     12       DPPC     H14S     HAL2     0.900000E-01   1.00800           0
      1511 MEMB     12       DPPC     C215     CTL2    -0.180000       12.0110           0
      1512 MEMB     12       DPPC     H15R     HAL2     0.900000E-01   1.00800           0
      1513 MEMB     12       DPPC     H15S     HAL2     0.900000E-01   1.00800           0
      1514 MEMB     12       DPPC     C216     CTL3    -0.270000       12.0110           0
      1515 MEMB     12       DPPC     H16R     HAL3     0.900000E-01   1.00800           0
      1516 MEMB     12       DPPC     H16S     HAL3     0.900000E-01   1.00800           0
      1517 MEMB     12       DPPC     H16T     HAL3     0.900000E-01   1.00800           0
      1518 MEMB     12       DPPC     C33      CTL2    -0.180000       12.0110           0
      1519 MEMB     12       DPPC     H3X      HAL2     0.900000E-01   1.00800           0
      1520 MEMB     12       DPPC     H3Y      HAL2     0.900000E-01   1.00800           0
      1521 MEMB     12       DPPC     C34      CTL2    -0.180000       12.0110           0
      1522 MEMB     12       DPPC     H4X      HAL2     0.900000E-01   1.00800           0
      1523 MEMB     12       DPPC     H4Y      HAL2     0.900000E-01   1.00800           0
      1524 MEMB     12       DPPC     C35      CTL2    -0.180000       12.0110           0
      1525 MEMB     12       DPPC     H5X      HAL2     0.900000E-01   1.00800           0
      1526 MEMB     12       DPPC     H5Y      HAL2     0.900000E-01   1.00800           0
      1527 MEMB     12       DPPC     C36      CTL2    -0.180000       12.0110           0
      1528 MEMB     12       DPPC     H6X      HAL2     0.900000E-01   1.00800           0
      1529 MEMB     12       DPPC     H6Y      HAL2     0.900000E-01   1.00800           0
      1530 MEMB     12       DPPC     C37      CTL2    -0.180000       12.0110           0
      1531 MEMB     12       DPPC     H7X      HAL2     0.900000E-01   1.00800           0
      1532 MEMB     12       DPPC     H7Y      HAL2     0.900000E-01   1.00800           0
      1533 MEMB     12       DPPC     C38      CTL2    -0.180000       12.0110           0
      1534 MEMB     12       DPPC     H8X      HAL2     0.900000E-01   1.00800           0
      1535 MEMB     12       DPPC     H8Y      HAL2     0.900000E-01   1.00800           0
      1536 MEMB     12       DPPC     C39      CTL2    -0.180000       12.0110           0
      1537 MEMB     12       DPPC     H9X      HAL2     0.900000E-01   1.00800           0
      1538 MEMB     12       DPPC     H9Y      HAL2     0.900000E-01   1.00800           0
      1539 MEMB     12       DPPC     C310     CTL2    -0.180000       12.0110           0
      1540 MEMB     12       DPPC     H10X     HAL2     0.900000E-01   1.00800           0
      1541 MEMB     12       DPPC     H10Y     HAL2     0.900000E-01   1.00800           0
      1542 MEMB     12       DPPC     C311     CTL2    -0.180000       12.0110           0
      1543 MEMB     12       DPPC     H11X     HAL2     0.900000E-01   1.00800           0
      1544 MEMB     12       DPPC     H11Y     HAL2     0.900000E-01   1.00800           0
      1545 MEMB     12       DPPC     C312     CTL2    -0.180000       12.0110           0
      1546 MEMB     12       DPPC     H12X     HAL2     0.900000E-01   1.00800           0
      1547 MEMB     12       DPPC     H12Y     HAL2     0.900000E-01   1.00800           0
      1548 MEMB     12       DPPC     C313     CTL2    -0.180000       12.0110           0
      1549 MEMB     12       DPPC     H13X     HAL2     0.900000E-01   1.00800           0
      1550 MEMB     12       DPPC     H13Y     HAL2     0.900000E-01   1.00800           0
      1551 MEMB     12       DPPC     C314     CTL2    -0.180000       12.0110           0
      1552 MEMB     12       DPPC     H14X     HAL2     0.900000E-01   1.00800           0
      1553 MEMB     12       DPPC     H14Y     HAL2     0.900000E-01   1.00800           0
      1554 MEMB     12       DPPC     C315     CTL2    -0.180000       12.0110           0
      1555 MEMB     12       DPPC     H15X     HAL2     0.900000E-01   1.00800           0
      1556 MEMB     12       DPPC     H15Y     HAL2     0.900000E-01   1.00800           0
      1557 MEMB     12       DPPC     C316     CTL3    -0.270000       12.0110           0
      1558 MEMB     12       DPPC     H16X     HAL3     0.900000E-01   1.00800           0
      1559 MEMB     12       DPPC     H16Y     HAL3     0.900000E-01   1.00800           0
      1560 MEMB     12       DPPC     H16Z     HAL3     0.900000E-01   1.00800           0
      1561 MEMB     13       DPPC     N        NTL     -0.600000       14.0070           0
      1562 MEMB     13       DPPC     C13      CTL5    -0.350000       12.0110           0
      1563 MEMB     13       DPPC     H13A     HL       0.250000       1.00800           0
      1564 MEMB     13       DPPC     H13B     HL       0.250000       1.00800           0
      1565 MEMB     13       DPPC     H13C     HL       0.250000       1.00800           0
      1566 MEMB     13       DPPC     C14      CTL5    -0.350000       12.0110           0
      1567 MEMB     13       DPPC     H14A     HL       0.250000       1.00800           0
      1568 MEMB     13       DPPC     H14B     HL       0.250000       1.00800           0
      1569 MEMB     13       DPPC     H14C     HL       0.250000       1.00800           0
      1570 MEMB     13       DPPC     C15      CTL5    -0.350000       12.0110           0
      1571 MEMB     13       DPPC     H15A     HL       0.250000       1.00800           0
      1572 MEMB     13       DPPC     H15B     HL       0.250000       1.00800           0
      1573 MEMB     13       DPPC     H15C     HL       0.250000       1.00800           0
      1574 MEMB     13       DPPC     C12      CTL2    -0.100000       12.0110           0
      1575 MEMB     13       DPPC     H12A     HL       0.250000       1.00800           0
      1576 MEMB     13       DPPC     H12B     HL       0.250000       1.00800           0
      1577 MEMB     13       DPPC     C11      CTL2    -0.800000E-01   12.0110           0
      1578 MEMB     13       DPPC     H11A     HAL2     0.900000E-01   1.00800           0
      1579 MEMB     13       DPPC     H11B     HAL2     0.900000E-01   1.00800           0
      1580 MEMB     13       DPPC     P        PL       1.500000       30.9740           0
      1581 MEMB     13       DPPC     O13      O2L     -0.780000       15.9994           0
      1582 MEMB     13       DPPC     O14      O2L     -0.780000       15.9994           0
      1583 MEMB     13       DPPC     O11      OSLP    -0.570000       15.9994           0
      1584 MEMB     13       DPPC     O12      OSLP    -0.570000       15.9994           0
      1585 MEMB     13       DPPC     C1       CTL2    -0.800000E-01   12.0110           0
      1586 MEMB     13       DPPC     HA       HAL2     0.900000E-01   1.00800           0
      1587 MEMB     13       DPPC     HB       HAL2     0.900000E-01   1.00800           0
      1588 MEMB     13       DPPC     C2       CTL1     0.170000       12.0110           0
      1589 MEMB     13       DPPC     HS       HAL1     0.900000E-01   1.00800           0
      1590 MEMB     13       DPPC     O21      OSL     -0.490000       15.9994           0
      1591 MEMB     13       DPPC     C21      CL       0.900000       12.0110           0
      1592 MEMB     13       DPPC     O22      OBL     -0.630000       15.9994           0
      1593 MEMB     13       DPPC     C22      CTL2    -0.220000       12.0110           0
      1594 MEMB     13       DPPC     H2R      HAL2     0.900000E-01   1.00800           0
      1595 MEMB     13       DPPC     H2S      HAL2     0.900000E-01   1.00800           0
      1596 MEMB     13       DPPC     C3       CTL2     0.800000E-01   12.0110           0
      1597 MEMB     13       DPPC     HX       HAL2     0.900000E-01   1.00800           0
      1598 MEMB     13       DPPC     HY       HAL2     0.900000E-01   1.00800           0
      1599 MEMB     13       DPPC     O31      OSL     -0.490000       15.9994           0
      1600 MEMB     13       DPPC     C31      CL       0.900000       12.0110           0
      1601 MEMB     13       DPPC     O32      OBL     -0.630000       15.9994           0
      1602 MEMB     13       DPPC     C32      CTL2    -0.220000       12.0110           0
      1603 MEMB     13       DPPC     H2X      HAL2     0.900000E-01   1.00800           0
      1604 MEMB     13       DPPC     H2Y      HAL2     0.900000E-01   1.00800           0
      1605 MEMB     13       DPPC     C23      CTL2    -0.180000       12.0110           0
      1606 MEMB     13       DPPC     H3R      HAL2     0.900000E-01   1.00800           0
      1607 MEMB     13       DPPC     H3S      HAL2     0.900000E-01   1.00800           0
      1608 MEMB     13       DPPC     C24      CTL2    -0.180000       12.0110           0
      1609 MEMB     13       DPPC     H4R      HAL2     0.900000E-01   1.00800           0
      1610 MEMB     13       DPPC     H4S      HAL2     0.900000E-01   1.00800           0
      1611 MEMB     13       DPPC     C25      CTL2    -0.180000       12.0110           0
      1612 MEMB     13       DPPC     H5R      HAL2     0.900000E-01   1.00800           0
      1613 MEMB     13       DPPC     H5S      HAL2     0.900000E-01   1.00800           0
      1614 MEMB     13       DPPC     C26      CTL2    -0.180000       12.0110           0
      1615 MEMB     13       DPPC     H6R      HAL2     0.900000E-01   1.00800           0
      1616 MEMB     13       DPPC     H6S      HAL2     0.900000E-01   1.00800           0
      1617 MEMB     13       DPPC     C27      CTL2    -0.180000       12.0110           0
      1618 MEMB     13       DPPC     H7R      HAL2     0.900000E-01   1.00800           0
      1619 MEMB     13       DPPC     H7S      HAL2     0.900000E-01   1.00800           0
      1620 MEMB     13       DPPC     C28      CTL2    -0.180000       12.0110           0
      1621 MEMB     13       DPPC     H8R      HAL2     0.900000E-01   1.00800           0
      1622 MEMB     13       DPPC     H8S      HAL2     0.900000E-01   1.00800           0
      1623 MEMB     13       DPPC     C29      CTL2    -0.180000       12.0110           0
      1624 MEMB     13       DPPC     H9R      HAL2     0.900000E-01   1.00800           0
      1625 MEMB     13       DPPC     H9S      HAL2     0.900000E-01   1.00800           0
      1626 MEMB     13       DPPC     C210     CTL2    -0.180000       12.0110           0
      1627 MEMB     13       DPPC     H10R     HAL2     0.900000E-01   1.00800           0
      1628 MEMB     13       DPPC     H10S     HAL2     0.900000E-01   1.00800           0
      1629 MEMB     13       DPPC     C211     CTL2    -0.180000       12.0110           0
      1630 MEMB     13       DPPC     H11R     HAL2     0.900000E-01   1.00800           0
      1631 MEMB     13       DPPC     H11S     HAL2     0.900000E-01   1.00800           0
      1632 MEMB     13       DPPC     C212     CTL2    -0.180000       12.0110           0
      1633 MEMB     13       DPPC     H12R     HAL2     0.900000E-01   1.00800           0
      1634 MEMB     13       DPPC     H12S     HAL2     0.900000E-01   1.00800           0
      1635 MEMB     13       DPPC     C213     CTL2    -0.180000       12.0110           0
      1636 MEMB     13       DPPC     H13R     HAL2     0.900000E-01   1.00800           0
      1637 MEMB     13       DPPC     H13S     HAL2     0.900000E-01   1.00800           0
      1638 MEMB     13       DPPC     C214     CTL2    -0.180000       12.0110           0
      1639 MEMB     13       DPPC     H14R     HAL2     0.900000E-01   1.00800           0
      1640 MEMB     13       DPPC     H14S     HAL2     0.900000E-01   1.00800           0
      1641 MEMB     13       DPPC     C215     CTL2    -0.180000       12.0110           0
      1642 MEMB     13       DPPC     H15R     HAL2     0.900000E-01   1.00800           0
      1643 MEMB     13       DPPC     H15S     HAL2     0.900000E-01   1.00800           0
      1644 MEMB     13       DPPC     C216     CTL3    -0.270000       12.0110           0
      1645 MEMB     13       DPPC     H16R     HAL3     0.900000E-01   1.00800           0
      1646 MEMB     13       DPPC     H16S     HAL3     0.900000E-01   1.00800           0
      1647 MEMB     13       DPPC     H16T     HAL3     0.900000E-01   1.00800           0
      1648 MEMB     13       DPPC     C33      CTL2    -0.180000       12.0110           0
      1649 MEMB     13       DPPC     H3X      HAL2     0.900000E-01   1.00800           0
      1650 MEMB     13       DPPC     H3Y      HAL2     0.900000E-01   1.00800           0
      1651 MEMB     13       DPPC     C34      CTL2    -0.180000       12.0110           0
      1652 MEMB     13       DPPC     H4X      HAL2     0.900000E-01   1.00800           0
      1653 MEMB     13       DPPC     H4Y      HAL2     0.900000E-01   1.00800           0
      1654 MEMB     13       DPPC     C35      CTL2    -0.180000       12.0110           0
      1655 MEMB     13       DPPC     H5X      HAL2     0.900000E-01   1.00800           0
      1656 MEMB     13       DPPC     H5Y      HAL2     0.900000E-01   1.00800           0
      1657 MEMB     13       DPPC     C36      CTL2    -0.180000       12.0110           0
      1658 MEMB     13       DPPC     H6X      HAL2     0.900000E-01   1.00800           0
      1659 MEMB     13       DPPC     H6Y      HAL2     0.900000E-01   1.00800           0
      1660 MEMB     13       DPPC     C37      CTL2    -0.180000       12.0110           0
      1661 MEMB     13       DPPC     H7X      HAL2     0.900000E-01   1.00800           0
      1662 MEMB     13       DPPC     H7Y      HAL2     0.900000E-01   1.00800           0
      1663 MEMB     13       DPPC     C38      CTL2    -0.180000       12.0110           0
      1664 MEMB     13       DPPC     H8X      HAL2     0.900000E-01   1.00800           0
      1665 MEMB     13       DPPC     H8Y      HAL2     0.900000E-01   1.00800           0
      1666 MEMB     13       DPPC     C39      CTL2    -0.180000       12.0110           0
      1667 MEMB     13       DPPC     H9X      HAL2     0.900000E-01   1.00800           0
      1668 MEMB     13       DPPC     H9Y      HAL2     0.900000E-01   1.00800           0
      1669 MEMB     13       DPPC     C310     CTL2    -0.180000       12.0110           0
      1670 MEMB     13       DPPC     H10X     HAL2     0.900000E-01   1.00800           0
      1671 MEMB     13       DPPC     H10Y     HAL2     0.900000E-01   1.00800           0
      1672 MEMB     13       DPPC     C311     CTL2    -0.180000       12.0110           0
      1673 MEMB     13       DPPC     H11X     HAL2     0.900000E-01   1.00800           0
      1674 MEMB     13       DPPC     H11Y     HAL2     0.900000E-01   1.00800           0
      1675 MEMB     13       DPPC     C312     CTL2    -0.180000       12.0110           0
      1676 MEMB     13       DPPC     H12X     HAL2     0.900000E-01   1.00800           0
      1677 MEMB     13       DPPC     H12Y     HAL2     0.900000E-01   1.00800           0
      1678 MEMB     13       DPPC     C313     CTL2    -0.180000       12.0110           0
      1679 MEMB     13       DPPC     H13X     HAL2     0.900000E-01   1.00800           0
      1680 MEMB     13       DPPC     H13Y     HAL2     0.900000E-01   1.00800           0
      1681 MEMB     13       DPPC     C314     CTL2    -0.180000       12.0110           0
      1682 MEMB     13       DPPC     H14X     HAL2     0.900000E-01   1.00800           0
      1683 MEMB     13       DPPC     H14Y     HAL2     0.900000E-01   1.00800           0
      1684 MEMB     13       DPPC     C315     CTL2    -0.180000       12.0110           0
      1685 MEMB     13       DPPC     H15X     HAL2     0.900000E-01   1.00800           0
      1686 MEMB     13       DPPC     H15Y     HAL2     0.900000E-01   1.00800           0
      1687 MEMB     13       DPPC     C316     CTL3    -0.270000       12.0110           0
      1688 MEMB     13       DPPC     H16X     HAL3     0.900000E-01   1.00800           0
      1689 MEMB     13       DPPC     H16Y     HAL3     0.900000E-01   1.00800           0
      1690 MEMB     13       DPPC     H16Z     HAL3     0.900000E-01   1.00800           0
      1691 MEMB     14       DPPC     N        NTL     -0.600000       14.0070           0
      1692 MEMB     14       DPPC     C13      CTL5    -0.350000       12.0110           0
      1693 MEMB     14       DPPC     H13A     HL       0.250000       1.00800           0
      1694 MEMB     14       DPPC     H13B     HL       0.250000       1.00800           0
      1695 MEMB     14       DPPC     H13C     HL       0.250000       1.00800           0
      1696 MEMB     14       DPPC     C14      CTL5    -0.350000       12.0110           0
      1697 MEMB     14       DPPC     H14A     HL       0.250000       1.00800           0
      1698 MEMB     14       DPPC     H14B     HL       0.250000       1.00800           0
      1699 MEMB     14       DPPC     H14C     HL       0.250000       1.00800           0
      1700 MEMB     14       DPPC     C15      CTL5    -0.350000       12.0110           0
      1701 MEMB     14       DPPC     H15A     HL       0.250000       1.00800           0
      1702 MEMB     14       DPPC     H15B     HL       0.250000       1.00800           0
      1703 MEMB     14       DPPC     H15C     HL       0.250000       1.00800           0
      1704 MEMB     14       DPPC     C12      CTL2    -0.100000       12.0110           0
      1705 MEMB     14       DPPC     H12A     HL       0.250000       1.00800           0
      1706 MEMB     14       DPPC     H12B     HL       0.250000       1.00800           0
      1707 MEMB     14       DPPC     C11      CTL2    -0.800000E-01   12.0110           0
      1708 MEMB     14       DPPC     H11A     HAL2     0.900000E-01   1.00800           0
      1709 MEMB     14       DPPC     H11B     HAL2     0.900000E-01   1.00800           0
      1710 MEMB     14       DPPC     P        PL       1.500000       30.9740           0
      1711 MEMB     14       DPPC     O13      O2L     -0.780000       15.9994           0
      1712 MEMB     14       DPPC     O14      O2L     -0.780000       15.9994           0
      1713 MEMB     14       DPPC     O11      OSLP    -0.570000       15.9994           0
      1714 MEMB     14       DPPC     O12      OSLP    -0.570000       15.9994           0
      1715 MEMB     14       DPPC     C1       CTL2    -0.800000E-01   12.0110           0
      1716 MEMB     14       DPPC     HA       HAL2     0.900000E-01   1.00800           0
      1717 MEMB     14       DPPC     HB       HAL2     0.900000E-01   1.00800           0
      1718 MEMB     14       DPPC     C2       CTL1     0.170000       12.0110           0
      1719 MEMB     14       DPPC     HS       HAL1     0.900000E-01   1.00800           0
      1720 MEMB     14       DPPC     O21      OSL     -0.490000       15.9994           0
      1721 MEMB     14       DPPC     C21      CL       0.900000       12.0110           0
      1722 MEMB     14       DPPC     O22      OBL     -0.630000       15.9994           0
      1723 MEMB     14       DPPC     C22      CTL2    -0.220000       12.0110           0
      1724 MEMB     14       DPPC     H2R      HAL2     0.900000E-01   1.00800           0
      1725 MEMB     14       DPPC     H2S      HAL2     0.900000E-01   1.00800           0
      1726 MEMB     14       DPPC     C3       CTL2     0.800000E-01   12.0110           0
      1727 MEMB     14       DPPC     HX       HAL2     0.900000E-01   1.00800           0
      1728 MEMB     14       DPPC     HY       HAL2     0.900000E-01   1.00800           0
      1729 MEMB     14       DPPC     O31      OSL     -0.490000       15.9994           0
      1730 MEMB     14       DPPC     C31      CL       0.900000       12.0110           0
      1731 MEMB     14       DPPC     O32      OBL     -0.630000       15.9994           0
      1732 MEMB     14       DPPC     C32      CTL2    -0.220000       12.0110           0
      1733 MEMB     14       DPPC     H2X      HAL2     0.900000E-01   1.00800           0
      1734 MEMB     14       DPPC     H2Y      HAL2     0.900000E-01   1.00800           0
      1735 MEMB     14       DPPC     C23      CTL2    -0.180000       12.0110           0
      1736 MEMB     14       DPPC     H3R      HAL2     0.900000E-01   1.00800           0
      1737 MEMB     14       DPPC     H3S      HAL2     0.900000E-01   1.00800           0
      1738 MEMB     14       DPPC     C24      CTL2    -0.180000       12.0110           0
      1739 MEMB     14       DPPC     H4R      HAL2     0.900000E-01   1.00800           0
      1740 MEMB     14       DPPC     H4S      HAL2     0.900000E-01   1.00800           0
      1741 MEMB     14       DPPC     C25      CTL2    -0.180000       12.0110           0
      1742 MEMB     14       DPPC     H5R      HAL2     0.900000E-01   1.00800           0
      1743 MEMB     14       DPPC     H5S      HAL2     0.900000E-01   1.00800           0
      1744 MEMB     14       DPPC     C26      CTL2    -0.180000       12.0110           0
      1745 MEMB     14       DPPC     H6R      HAL2     0.900000E-01   1.00800           0
      1746 MEMB     14       DPPC     H6S      HAL2     0.900000E-01   1.00800           0
      1747 MEMB     14       DPPC     C27      CTL2    -0.180000       12.0110           0
      1748 MEMB     14       DPPC     H7R      HAL2     0.900000E-01   1.00800           0
      1749 MEMB     14       DPPC     H7S      HAL2     0.900000E-01   1.00800           0
      1750 MEMB     14       DPPC     C28      CTL2    -0.180000       12.0110           0
      1751 MEMB     14       DPPC     H8R      HAL2     0.900000E-01   1.00800           0
      1752 MEMB     14       DPPC     H8S      HAL2     0.900000E-01   1.00800           0
      1753 MEMB     14       DPPC     C29      CTL2    -0.180000       12.0110           0
      1754 MEMB     14       DPPC     H9R      HAL2     0.900000E-01   1.00800           0
      1755 MEMB     14       DPPC     H9S      HAL2     0.900000E-01   1.00800           0
      1756 MEMB     14       DPPC     C210     CTL2    -0.180000       12.0110           0
      1757 MEMB     14       DPPC     H10R     HAL2     0.900000E-01   1.00800           0
      1758 MEMB     14       DPPC     H10S     HAL2     0.900000E-01   1.00800           0
      1759 MEMB     14       DPPC     C211     CTL2    -0.180000       12.0110           0
      1760 MEMB     14       DPPC     H11R     HAL2     0.900000E-01   1.00800           0
      1761 MEMB     14       DPPC     H11S     HAL2     0.900000E-01   1.00800           0
      1762 MEMB     14       DPPC     C212     CTL2    -0.180000       12.0110           0
      1763 MEMB     14       DPPC     H12R     HAL2     0.900000E-01   1.00800           0
      1764 MEMB     14       DPPC     H12S     HAL2     0.900000E-01   1.00800           0
      1765 MEMB     14       DPPC     C213     CTL2    -0.180000       12.0110           0
      1766 MEMB     14       DPPC     H13R     HAL2     0.900000E-01   1.00800           0
      1767 MEMB     14       DPPC     H13S     HAL2     0.900000E-01   1.00800           0
      1768 MEMB     14       DPPC     C214     CTL2    -0.180000       12.0110           0
      1769 MEMB     14       DPPC     H14R     HAL2     0.900000E-01   1.00800           0
      1770 MEMB     14       DPPC     H14S     HAL2     0.900000E-01   1.00800           0
      1771 MEMB     14       DPPC     C215     CTL2    -0.180000       12.0110           0
      1772 MEMB     14       DPPC     H15R     HAL2     0.900000E-01   1.00800           0
      1773 MEMB     14       DPPC     H15S     HAL2     0.900000E-01   1.00800           0
      1774 MEMB     14       DPPC     C216     CTL3    -0.270000       12.0110           0
      1775 MEMB     14       DPPC     H16R     HAL3     0.900000E-01   1.00800           0
      1776 MEMB     14       DPPC     H16S     HAL3     0.900000E-01   1.00800           0
      1777 MEMB     14       DPPC     H16T     HAL3     0.900000E-01   1.00800           0
      1778 MEMB     14       DPPC     C33      CTL2    -0.180000       12.0110           0
      1779 MEMB     14       DPPC     H3X      HAL2     0.900000E-01   1.00800           0
      1780 MEMB     14       DPPC     H3Y      HAL2     0.900000E-01   1.00800           0
      1781 MEMB     14       DPPC     C34      CTL2    -0.180000       12.0110           0
      1782 MEMB     14       DPPC     H4X      HAL2     0.900000E-01   1.00800           0
      1783 MEMB     14       DPPC     H4Y      HAL2     0.900000E-01   1.00800           0
      1784 MEMB     14       DPPC     C35      CTL2    -0.180000       12.0110           0
      1785 MEMB     14       DPPC     H5X      HAL2     0.900000E-01   1.00800           0
      1786 MEMB     14       DPPC     H5Y      HAL2     0.900000E-01   1.00800           0
      1787 MEMB     14       DPPC     C36      CTL2    -0.180000       12.0110           0
      1788 MEMB     14       DPPC     H6X      HAL2     0.900000E-01   1.00800           0
      1789 MEMB     14       DPPC     H6Y      HAL2     0.900000E-01   1.00800           0
      1790 MEMB     14       DPPC     C37      CTL2    -0.180000       12.0110           0
      1791 MEMB     14       DPPC     H7X      HAL2     0.900000E-01   1.00800           0
      1792 MEMB     14       DPPC     H7Y      HAL2     0.900000E-01   1.00800           0
      1793 MEMB     14       DPPC     C38      CTL2    -0.180000       12.0110           0
      1794 MEMB     14       DPPC     H8X      HAL2     0.900000E-01   1.00800           0
      1795 MEMB     14       DPPC     H8Y      HAL2     0.900000E-01   1.00800           0
      1796 MEMB     14       DPPC     C39      CTL2    -0.180000       12.0110           0
      1797 MEMB     14       DPPC     H9X      HAL2     0.900000E-01   1.00800           0
      1798 MEMB     14       DPPC     H9Y      HAL2     0.900000E-01   1.00800           0
      1799 MEMB     14       DPPC     C310     CTL2    -0.180000       12.0110           0
      1800 MEMB     14       DPPC     H10X     HAL2     0.900000E-01   1.00800           0
      1801 MEMB     14       DPPC     H10Y     HAL2     0.900000E-01   1.00800           0
      1802 MEMB     14       DPPC     C311     CTL2    -0.180000       12.0110           0
      1803 MEMB     14       DPPC     H11X     HAL2     0.900000E-01   1.00800           0
      1804 MEMB     14       DPPC     H11Y     HAL2     0.900000E-01   1.00800           0
      1805 MEMB     14       DPPC     C312     CTL2    -0.180000       12.0110           0
      1806 MEMB     14       DPPC     H12X     HAL2     0.900000E-01   1.00800           0
      1807 MEMB     14       DPPC     H12Y     HAL2     0.900000E-01   1.00800           0
      1808 MEMB     14       DPPC     C313     CTL2    -0.180000       12.0110           0
      1809 MEMB     14       DPPC     H13X     HAL2     0.900000E-01   1.00800           0
      1810 MEMB     14       DPPC     H13Y     HAL2     0.900000E-01   1.00800           0
      1811 MEMB     14       DPPC     C314     CTL2    -0.180000       12.0110           0
      1812 MEMB     14       DPPC     H14X     HAL2     0.900000E-01   1.00800           0
      1813 MEMB     14       DPPC     H14Y     HAL2     0.900000E-01   1.00800           0
      1814 MEMB     14       DPPC     C315     CTL2    -0.180000       12.0110           0
      1815 MEMB     14       DPPC     H15X     HAL2     0.900000E-01   1.00800           0
      1816 MEMB     14       DPPC     H15Y     HAL2     0.900000E-01   1.00800           0
      1817 MEMB     14       DPPC     C316     CTL3    -0.270000       12.0110           0
      1818 MEMB     14       DPPC     H16X     HAL3     0.900000E-01   1.00800           0
      1819 MEMB     14       DPPC     H16Y     HAL3     0.900000E-01   1.00800           0
      1820 MEMB     14       DPPC     H16Z     HAL3     0.900000E-01   1.00800           0
      1821 MEMB     15       DPPC     N        NTL     -0.600000       14.0070           0
      1822 MEMB     15       DPPC     C13      CTL5    -0.350000       12.0110           0
      1823 MEMB     15       DPPC     H13A     HL       0.250000       1.00800           0
      1824 MEMB     15       DPPC     H13B     HL       0.250000       1.00800           0
      1825 MEMB     15       DPPC     H13C     HL       0.250000       1.00800           0
      1826 MEMB     15       DPPC     C14      CTL5    -0.350000       12.0110           0
      1827 MEMB     15       DPPC     H14A     HL       0.250000       1.00800           0
      1828 MEMB     15       DPPC     H14B     HL       0.250000       1.00800           0
      1829 MEMB     15       DPPC     H14C     HL       0.250000       1.00800           0
      1830 MEMB     15       DPPC     C15      CTL5    -0.350000       12.0110           0
      1831 MEMB     15       DPPC     H15A     HL       0.250000       1.00800           0
      1832 MEMB     15       DPPC     H15B     HL       0.250000       1.00800           0
      1833 MEMB     15       DPPC     H15C     HL       0.250000       1.00800           0
      1834 MEMB     15       DPPC     C12      CTL2    -0.100000       12.0110           0
      1835 MEMB     15       DPPC     H12A     HL       0.250000       1.00800           0
      1836 MEMB     15       DPPC     H12B     HL       0.250000       1.00800           0
      1837 MEMB     15       DPPC     C11      CTL2    -0.800000E-01   12.0110           0
      1838 MEMB     15       DPPC     H11A     HAL2     0.900000E-01   1.00800           0
      1839 MEMB     15       DPPC     H11B     HAL2     0.900000E-01   1.00800           0
      1840 MEMB     15       DPPC     P        PL       1.500000       30.9740           0
      1841 MEMB     15       DPPC     O13      O2L     -0.780000       15.9994           0
      1842 MEMB     15       DPPC     O14      O2L     -0.780000       15.9994           0
      1843 MEMB     15       DPPC     O11      OSLP    -0.570000       15.9994           0
      1844 MEMB     15       DPPC     O12      OSLP    -0.570000       15.9994           0
      1845 MEMB     15       DPPC     C1       CTL2    -0.800000E-01   12.0110           0
      1846 MEMB     15       DPPC     HA       HAL2     0.900000E-01   1.00800           0
      1847 MEMB     15       DPPC     HB       HAL2     0.900000E-01   1.00800           0
      1848 MEMB     15       DPPC     C2       CTL1     0.170000       12.0110           0
      1849 MEMB     15       DPPC     HS       HAL1     0.900000E-01   1.00800           0
      1850 MEMB     15       DPPC     O21      OSL     -0.490000       15.9994           0
      1851 MEMB     15       DPPC     C21      CL       0.900000       12.0110           0
      1852 MEMB     15       DPPC     O22      OBL     -0.630000       15.9994           0
      1853 MEMB     15       DPPC     C22      CTL2    -0.220000       12.0110           0
      1854 MEMB     15       DPPC     H2R      HAL2     0.900000E-01   1.00800           0
      1855 MEMB     15       DPPC     H2S      HAL2     0.900000E-01   1.00800           0
      1856 MEMB     15       DPPC     C3       CTL2     0.800000E-01   12.0110           0
      1857 MEMB     15       DPPC     HX       HAL2     0.900000E-01   1.00800           0
      1858 MEMB     15       DPPC     HY       HAL2     0.900000E-01   1.00800           0
      1859 MEMB     15       DPPC     O31      OSL     -0.490000       15.9994           0
      1860 MEMB     15       DPPC     C31      CL       0.900000       12.0110           0
      1861 MEMB     15       DPPC     O32      OBL     -0.630000       15.9994           0
      1862 MEMB     15       DPPC     C32      CTL2    -0.220000       12.0110           0
      1863 MEMB     15       DPPC     H2X      HAL2     0.900000E-01   1.00800           0
      1864 MEMB     15       DPPC     H2Y      HAL2     0.900000E-01   1.00800           0
      1865 MEMB     15       DPPC     C23      CTL2    -0.180000       12.0110           0
      1866 MEMB     15       DPPC     H3R      HAL2     0.900000E-01   1.00800           0
      1867 MEMB     15       DPPC     H3S      HAL2     0.900000E-01   1.00800           0
      1868 MEMB     15       DPPC     C24      CTL2    -0.180000       12.0110           0
      1869 MEMB     15       DPPC     H4R      HAL2     0.900000E-01   1.00800           0
      1870 MEMB     15       DPPC     H4S      HAL2     0.900000E-01   1.00800           0
      1871 MEMB     15       DPPC     C25      CTL2    -0.180000       12.0110           0
      1872 MEMB     15       DPPC     H5R      HAL2     0.900000E-01   1.00800           0
      1873 MEMB     15       DPPC     H5S      HAL2     0.900000E-01   1.00800           0
      1874 MEMB     15       DPPC     C26      CTL2    -0.180000       12.0110           0
      1875 MEMB     15       DPPC     H6R      HAL2     0.900000E-01   1.00800           0
      1876 MEMB     15       DPPC     H6S      HAL2     0.900000E-01   1.00800           0
      1877 MEMB     15       DPPC     C27      CTL2    -0.180000       12.0110           0
      1878 MEMB     15       DPPC     H7R      HAL2     0.900000E-01   1.00800           0
      1879 MEMB     15       DPPC     H7S      HAL2     0.900000E-01   1.00800           0
      1880 MEMB     15       DPPC     C28      CTL2    -0.180000       12.0110           0
      1881 MEMB     15       DPPC     H8R      HAL2     0.900000E-01   1.00800           0
      1882 MEMB     15       DPPC     H8S      HAL2     0.900000E-01   1.00800           0
      1883 MEMB     15       DPPC     C29      CTL2    -0.180000       12.0110           0
      1884 MEMB     15       DPPC     H9R      HAL2     0.900000E-01   1.00800           0
      1885 MEMB     15       DPPC     H9S      HAL2     0.900000E-01   1.00800           0
      1886 MEMB     15       DPPC     C210     CTL2    -0.180000       12.0110           0
      1887 MEMB     15       DPPC     H10R     HAL2     0.900000E-01   1.00800           0
      1888 MEMB     15       DPPC     H10S     HAL2     0.900000E-01   1.00800           0
      1889 MEMB     15       DPPC     C211     CTL2    -0.180000       12.0110           0
      1890 MEMB     15       DPPC     H11R     HAL2     0.900000E-01   1.00800           0
      1891 MEMB     15       DPPC     H11S     HAL2     0.900000E-01   1.00800           0
      1892 MEMB     15       DPPC     C212     CTL2    -0.180000       12.0110           0
      1893 MEMB     15       DPPC     H12R     HAL2     0.900000E-01   1.00800           0
      1894 MEMB     15       DPPC     H12S     HAL2     0.900000E-01   1.00800           0
      1895 MEMB     15       DPPC     C213     CTL2    -0.180000       12.0110           0
      1896 MEMB     15       DPPC     H13R     HAL2     0.900000E-01   1.00800           0
      1897 MEMB     15       DPPC     H13S     HAL2     0.900000E-01   1.00800           0
      1898 MEMB     15       DPPC     C214     CTL2    -0.180000       12.0110           0
      1899 MEMB     15       DPPC     H14R     HAL2     0.900000E-01   1.00800           0
      1900 MEMB     15       DPPC     H14S     HAL2     0.900000E-01   1.00800           0
      1901 MEMB     15       DPPC     C215     CTL2    -0.180000       12.0110           0
      1902 MEMB     15       DPPC     H15R     HAL2     0.900000E-01   1.00800           0
      1903 MEMB     15       DPPC     H15S     HAL2     0.900000E-01   1.00800           0
      1904 MEMB     15       DPPC     C216     CTL3    -0.270000       12.0110           0
      1905 MEMB     15       DPPC     H16R     HAL3     0.900000E-01   1.00800           0
      1906 MEMB     15       DPPC     H16S     HAL3     0.900000E-01   1.00800           0
      1907 MEMB     15       DPPC     H16T     HAL3     0.900000E-01   1.00800           0
      1908 MEMB     15       DPPC     C33      CTL2    -0.180000       12.0110           0
      1909 MEMB     15       DPPC     H3X      HAL2     0.900000E-01   1.00800           0
      1910 MEMB     15       DPPC     H3Y      HAL2     0.900000E-01   1.00800           0
      1911 MEMB     15       DPPC     C34      CTL2    -0.180000       12.0110           0
      1912 MEMB     15       DPPC     H4X      HAL2     0.900000E-01   1.00800           0
      1913 MEMB     15       DPPC     H4Y      HAL2     0.900000E-01   1.00800           0
      1914 MEMB     15       DPPC     C35      CTL2    -0.180000       12.0110           0
      1915 MEMB     15       DPPC     H5X      HAL2     0.900000E-01   1.00800           0
      1916 MEMB     15       DPPC     H5Y      HAL2     0.900000E-01   1.00800           0
      1917 MEMB     15       DPPC     C36      CTL2    -0.180000       12.0110           0
      1918 MEMB     15       DPPC     H6X      HAL2     0.900000E-01   1.00800           0
      1919 MEMB     15       DPPC     H6Y      HAL2     0.900000E-01   1.00800           0
      1920 MEMB     15       DPPC     C37      CTL2    -0.180000       12.0110           0
      1921 MEMB     15       DPPC     H7X      HAL2     0.900000E-01   1.00800           0
      1922 MEMB     15       DPPC     H7Y      HAL2     0.900000E-01   1.00800           0
      1923 MEMB     15       DPPC     C38      CTL2    -0.180000       12.0110           0
      1924 MEMB     15       DPPC     H8X      HAL2     0.900000E-01   1.00800           0
      1925 MEMB     15       DPPC     H8Y      HAL2     0.900000E-01   1.00800           0
      1926 MEMB     15       DPPC     C39      CTL2    -0.180000       12.0110           0
      1927 MEMB     15       DPPC     H9X      HAL2     0.900000E-01   1.00800           0
      1928 MEMB     15       DPPC     H9Y      HAL2     0.900000E-01   1.00800           0
      1929 MEMB     15       DPPC     C310     CTL2    -0.180000       12.0110           0
      1930 MEMB     15       DPPC     H10X     HAL2     0.900000E-01   1.00800           0
      1931 MEMB     15       DPPC     H10Y     HAL2     0.900000E-01   1.00800           0
      1932 MEMB     15       DPPC     C311     CTL2    -0.180000       12.0110           0
      1933 MEMB     15       DPPC     H11X     HAL2     0.900000E-01   1.00800           0
      1934 MEMB     15       DPPC     H11Y     HAL2     0.900000E-01   1.00800           0
      1935 MEMB     15       DPPC     C312     CTL2    -0.180000       12.0110           0
      1936 MEMB     15       DPPC     H12X     HAL2     0.900000E-01   1.00800           0
      1937 MEMB     15       DPPC     H12Y     HAL2     0.900000E-01   1.00800           0
      1938 MEMB     15       DPPC     C313     CTL2    -0.180000       12.0110           0
      1939 MEMB     15       DPPC     H13X     HAL2     0.900000E-01   1.00800           0
      1940 MEMB     15       DPPC     H13Y     HAL2     0.900000E-01   1.00800           0
      1941 MEMB     15       DPPC     C314     CTL2    -0.180000       12.0110           0
      1942 MEMB     15       DPPC     H14X     HAL2     0.900000E-01   1.00800           0
      1943 MEMB     15       DPPC     H14Y     HAL2     0.900000E-01   1.00800           0
      1944 MEMB     15       DPPC     C315     CTL2    -0.180000       12.0110           0
      1945 MEMB     15       DPPC     H15X     HAL2     0.900000E-01   1.00800           0
      1946 MEMB     15       DPPC     H15Y     HAL2     0.900000E-01   1.00800           0
      1947 MEMB     15       DPPC     C316     CTL3    -0.270000       12.0110           0
      1948 MEMB     15       DPPC     H16X     HAL3     0.900000E-01   1.00800           0
      1949 MEMB     15       DPPC     H16Y     HAL3     0.900000E-01   1.00800           0
      1950 MEMB     15       DPPC     H16Z     HAL3     0.900000E-01   1.00800           0
      1951 MEMB     16       DPPC     N        NTL     -0.600000       14.0070           0
      1952 MEMB     16       DPPC     C13      CTL5    -0.350000       12.0110           0
      1953 MEMB     16       DPPC     H13A     HL       0.250000       1.00800           0
      1954 MEMB     16       DPPC     H13B     HL       0.250000       1.00800           0
      1955 MEMB     16       DPPC     H13C     HL       0.250000       1.00800           0
      1956 MEMB     16       DPPC     C14      CTL5    -0.350000       12.0110           0
      1957 MEMB     16       DPPC     H14A     HL       0.250000       1.00800           0
      1958 MEMB     16       DPPC     H14B     HL       0.250000       1.00800           0
      1959 MEMB     16       DPPC     H14C     HL       0.250000       1.00800           0
      1960 MEMB     16       DPPC     C15      CTL5    -0.350000       12.0110           0
      1961 MEMB     16       DPPC     H15A     HL       0.250000       1.00800           0
      1962 MEMB     16       DPPC     H15B     HL       0.250000       1.00800           0
      1963 MEMB     16       DPPC     H15C     HL       0.250000       1.00800           0
      1964 MEMB     16       DPPC     C12      CTL2    -0.100000       12.0110           0
      1965 MEMB     16       DPPC     H12A     HL       0.250000       1.00800           0
      1966 MEMB     16       DPPC     H12B     HL       0.250000       1.00800           0
      1967 MEMB     16       DPPC     C11      CTL2    -0.800000E-01   12.0110           0
      1968 MEMB     16       DPPC     H11A     HAL2     0.900000E-01   1.00800           0
      1969 MEMB     16       DPPC     H11B     HAL2     0.900000E-01   1.00800           0
      1970 MEMB     16       DPPC     P        PL       1.500000       30.9740           0
      1971 MEMB     16       DPPC     O13      O2L     -0.780000       15.9994           0
      1972 MEMB     16       DPPC     O14      O2L     -0.780000       15.9994           0
      1973 MEMB     16       DPPC     O11      OSLP    -0.570000       15.9994           0
      1974 MEMB     16       DPPC     O12      OSLP    -0.570000       15.9994           0
      1975 MEMB     16       DPPC     C1       CTL2    -0.800000E-01   12.0110           0
      1976 MEMB     16       DPPC     HA       HAL2     0.900000E-01   1.00800           0
      1977 MEMB     16       DPPC     HB       HAL2     0.900000E-01   1.00800           0
      1978 MEMB     16       DPPC     C2       CTL1     0.170000       12.0110           0
      1979 MEMB     16       DPPC     HS       HAL1     0.900000E-01   1.00800           0
      1980 MEMB     16       DPPC     O21      OSL     -0.490000       15.9994           0
      1981 MEMB     16       DPPC     C21      CL       0.900000       12.0110           0
      1982 MEMB     16       DPPC     O22      OBL     -0.630000       15.9994           0
      1983 MEMB     16       DPPC     C22      CTL2    -0.220000       12.0110           0
      1984 MEMB     16       DPPC     H2R      HAL2     0.900000E-01   1.00800           0
      1985 MEMB     16       DPPC     H2S      HAL2     0.900000E-01   1.00800           0
      1986 MEMB     16       DPPC     C3       CTL2     0.800000E-01   12.0110           0
      1987 MEMB     16       DPPC     HX       HAL2     0.900000E-01   1.00800           0
      1988 MEMB     16       DPPC     HY       HAL2     0.900000E-01   1.00800           0
      1989 MEMB     16       DPPC     O31      OSL     -0.490000       15.9994           0
      1990 MEMB     16       DPPC     C31      CL       0.900000       12.0110           0
      1991 MEMB     16       DPPC     O32      OBL     -0.630000       15.9994           0
      1992 MEMB     16       DPPC     C32      CTL2    -0.220000       12.0110           0
      1993 MEMB     16       DPPC     H2X      HAL2     0.900000E-01   1.00800           0
      1994 MEMB     16       DPPC     H2Y      HAL2     0.900000E-01   1.00800           0
      1995 MEMB     16       DPPC     C23      CTL2    -0.180000       12.0110           0
      1996 MEMB     16       DPPC     H3R      HAL2     0.900000E-01   1.00800           0
      1997 MEMB     16       DPPC     H3S      HAL2     0.900000E-01   1.00800           0
      1998 MEMB     16       DPPC     C24      CTL2    -0.180000       12.0110           0
      1999 MEMB     16       DPPC     H4R      HAL2     0.900000E-01   1.00800           0
      2000 MEMB     16       DPPC     H4S      HAL2     0.900000E-01   1.00800           0
      2001 MEMB     16       DPPC     C25      CTL2    -0.180000       12.0110           0
      2002 MEMB     16       DPPC     H5R      HAL2     0.900000E-01   1.00800           0
      2003 MEMB     16       DPPC     H5S      HAL2     0.900000E-01   1.00800           0
      2004 MEMB     16       DPPC     C26      CTL2    -0.180000       12.0110           0
      2005 MEMB     16       DPPC     H6R      HAL2     0.900000E-01   1.00800           0
      2006 MEMB     16       DPPC     H6S      HAL2     0.900000E-01   1.00800           0
      2007 MEMB     16       DPPC     C27      CTL2    -0.180000       12.0110           0
      2008 MEMB     16       DPPC     H7R      HAL2     0.900000E-01   1.00800           0
      2009 MEMB     16       DPPC     H7S      HAL2     0.900000E-01   1.00800           0
      2010 MEMB     16       DPPC     C28      CTL2    -0.180000       12.0110           0
      2011 MEMB     16       DPPC     H8R      HAL2     0.900000E-01   1.00800           0
      2012 MEMB     16       DPPC     H8S      HAL2     0.900000E-01   1.00800           0
      2013 MEMB     16       DPPC     C29      CTL2    -0.180000       12.0110           0
      2014 MEMB     16       DPPC     H9R      HAL2     0.900000E-01   1.00800           0
      2015 MEMB     16       DPPC     H9S      HAL2     0.900000E-01   1.00800           0
      2016 MEMB     16       DPPC     C210     CTL2    -0.180000       12.0110           0
      2017 MEMB     16       DPPC     H10R     HAL2     0.900000E-01   1.00800           0
      2018 MEMB     16       DPPC     H10S     HAL2     0.900000E-01   1.00800           0
      2019 MEMB     16       DPPC     C211     CTL2    -0.180000       12.0110           0
      2020 MEMB     16       DPPC     H11R     HAL2     0.900000E-01   1.00800           0
      2021 MEMB     16       DPPC     H11S     HAL2     0.900000E-01   1.00800           0
      2022 MEMB     16       DPPC     C212     CTL2    -0.180000       12.0110           0
      2023 MEMB     16       DPPC     H12R     HAL2     0.900000E-01   1.00800           0
      2024 MEMB     16       DPPC     H12S     HAL2     0.900000E-01   1.00800           0
      2025 MEMB     16       DPPC     C213     CTL2    -0.180000       12.0110           0
      2026 MEMB     16       DPPC     H13R     HAL2     0.900000E-01   1.00800           0
      2027 MEMB     16       DPPC     H13S     HAL2     0.900000E-01   1.00800           0
      2028 MEMB     16       DPPC     C214     CTL2    -0.180000       12.0110           0
      2029 MEMB     16       DPPC     H14R     HAL2     0.900000E-01   1.00800           0
      2030 MEMB     16       DPPC     H14S     HAL2     0.900000E-01   1.00800           0
      2031 MEMB     16       DPPC     C215     CTL2    -0.180000       12.0110           0
      2032 MEMB     16       DPPC     H15R     HAL2     0.900000E-01   1.00800           0
      2033 MEMB     16       DPPC     H15S     HAL2     0.900000E-01   1.00800           0
      2034 MEMB     16       DPPC     C216     CTL3    -0.270000       12.0110           0
      2035 MEMB     16       DPPC     H16R     HAL3     0.900000E-01   1.00800           0
      2036 MEMB     16       DPPC     H16S     HAL3     0.900000E-01   1.00800           0
      2037 MEMB     16       DPPC     H16T     HAL3     0.900000E-01   1.00800           0
      2038 MEMB     16       DPPC     C33      CTL2    -0.180000       12.0110           0
      2039 MEMB     16       DPPC     H3X      HAL2     0.900000E-01   1.00800           0
      2040 MEMB     16       DPPC     H3Y      HAL2     0.900000E-01   1.00800           0
      2041 MEMB     16       DPPC     C34      CTL2    -0.180000       12.0110           0
      2042 MEMB     16       DPPC     H4X      HAL2     0.900000E-01   1.00800           0
      2043 MEMB     16       DPPC     H4Y      HAL2     0.900000E-01   1.00800           0
      2044 MEMB     16       DPPC     C35      CTL2    -0.180000       12.0110           0
      2045 MEMB     16       DPPC     H5X      HAL2     0.900000E-01   1.00800           0
      2046 MEMB     16       DPPC     H5Y      HAL2     0.900000E-01   1.00800           0
      2047 MEMB     16       DPPC     C36      CTL2    -0.180000       12.0110           0
      2048 MEMB     16       DPPC     H6X      HAL2     0.900000E-01   1.00800           0
      2049 MEMB     16       DPPC     H6Y      HAL2     0.900000E-01   1.00800           0
      2050 MEMB     16       DPPC     C37      CTL2    -0.180000       12.0110           0
      2051 MEMB     16       DPPC     H7X      HAL2     0.900000E-01   1.00800           0
      2052 MEMB     16       DPPC     H7Y      HAL2     0.900000E-01   1.00800           0
      2053 MEMB     16       DPPC     C38      CTL2    -0.180000       12.0110           0
      2054 MEMB     16       DPPC     H8X      HAL2     0.900000E-01   1.00800           0
      2055 MEMB     16       DPPC     H8Y      HAL2     0.900000E-01   1.00800           0
      2056 MEMB     16       DPPC     C39      CTL2    -0.180000       12.0110           0
      2057 MEMB     16       DPPC     H9X      HAL2     0.900000E-01   1.00800           0
      2058 MEMB     16       DPPC     H9Y      HAL2     0.900000E-01   1.00800           0
      2059 MEMB     16       DPPC     C310     CTL2    -0.180000       12.0110           0
      2060 MEMB     16       DPPC     H10X     HAL2     0.900000E-01   1.00800           0
      2061 MEMB     16       DPPC     H10Y     HAL2     0.900000E-01   1.00800           0
      2062 MEMB     16       DPPC     C311     CTL2    -0.180000       12.0110           0
      2063 MEMB     16       DPPC     H11X     HAL2     0.900000E-01   1.00800           0
      2064 MEMB     16       DPPC     H11Y     HAL2     0.900000E-01   1.00800           0
      2065 MEMB     16       DPPC     C312     CTL2    -0.180000       12.0110           0
      2066 MEMB     16       DPPC     H12X     HAL2     0.900000E-01   1.00800           0
      2067 MEMB     16       DPPC     H12Y     HAL2     0.900000E-01   1.00800           0
      2068 MEMB     16       DPPC     C313     CTL2    -0.180000       12.0110           0
      2069 MEMB     16       DPPC     H13X     HAL2     0.900000E-01   1.00800           0
      2070 MEMB     16       DPPC     H13Y     HAL2     0.900000E-01   1.00800           0
      2071 MEMB     16       DPPC     C314     CTL2    -0.180000       12.0110           0
      2072 MEMB     16       DPPC     H14X     HAL2     0.900000E-01   1.00800           0
      2073 MEMB     16       DPPC     H14Y     HAL2     0.900000E-01   1.00800           0
      2074 MEMB     16       DPPC     C315     CTL2    -0.180000       12.0110           0
      2075 MEMB     16       DPPC     H15X     HAL2     0.900000E-01   1.00800           0
      2076 MEMB     16       DPPC     H15Y     HAL2     0.900000E-01   1.00800           0
      2077 MEMB     16       DPPC     C316     CTL3    -0.270000       12.0110           0
      2078 MEMB     16       DPPC     H16X     HAL3     0.900000E-01   1.00800           0
      2079 MEMB     16       DPPC     H16Y     HAL3     0.900000E-01   1.00800           0
      2080 MEMB     16       DPPC     H16Z     HAL3     0.900000E-01   1.00800           0
      2081 MEMB     17       DPPC     N        NTL     -0.600000       14.0070           0
      2082 MEMB     17       DPPC     C13      CTL5    -0.350000       12.0110           0
      2083 MEMB     17       DPPC     H13A     HL       0.250000       1.00800           0
      2084 MEMB     17       DPPC     H13B     HL       0.250000       1.00800           0
      2085 MEMB     17       DPPC     H13C     HL       0.250000       1.00800           0
      2086 MEMB     17       DPPC     C14      CTL5    -0.350000       12.0110           0
      2087 MEMB     17       DPPC     H14A     HL       0.250000       1.00800           0
      2088 MEMB     17       DPPC     H14B     HL       0.250000       1.00800           0
      2089 MEMB     17       DPPC     H14C     HL       0.250000       1.00800           0
      2090 MEMB     17       DPPC     C15      CTL5    -0.350000       12.0110           0
      2091 MEMB     17       DPPC     H15A     HL       0.250000       1.00800           0
      2092 MEMB     17       DPPC     H15B     HL       0.250000       1.00800           0
      2093 MEMB     17       DPPC     H15C     HL       0.250000       1.00800           0
      2094 MEMB     17       DPPC     C12      CTL2    -0.100000       12.0110           0
      2095 MEMB     17       DPPC     H12A     HL       0.250000       1.00800           0
      2096 MEMB     17       DPPC     H12B     HL       0.250000       1.00800           0
      2097 MEMB     17       DPPC     C11      CTL2    -0.800000E-01   12.0110           0
      2098 MEMB     17       DPPC     H11A     HAL2     0.900000E-01   1.00800           0
      2099 MEMB     17       DPPC     H11B     HAL2     0.900000E-01   1.00800           0
      2100 MEMB     17       DPPC     P        PL       1.500000       30.9740           0
      2101 MEMB     17       DPPC     O13      O2L     -0.780000       15.9994           0
      2102 MEMB     17       DPPC     O14      O2L     -0.780000       15.9994           0
      2103 MEMB     17       DPPC     O11      OSLP    -0.570000       15.9994           0
      2104 MEMB     17       DPPC     O12      OSLP    -0.570000       15.9994           0
      2105 MEMB     17       DPPC     C1       CTL2    -0.800000E-01   12.0110           0
      2106 MEMB     17       DPPC     HA       HAL2     0.900000E-01   1.00800           0
      2107 MEMB     17       DPPC     HB       HAL2     0.900000E-01   1.00800           0
      2108 MEMB     17       DPPC     C2       CTL1     0.170000       12.0110           0
      2109 MEMB     17       DPPC     HS       HAL1     0.900000E-01   1.00800           0
      2110 MEMB     17       DPPC     O21      OSL     -0.490000       15.9994           0
      2111 MEMB     17       DPPC     C21      CL       0.900000       12.0110           0
      2112 MEMB     17       DPPC     O22      OBL     -0.630000       15.9994           0
      2113 MEMB     17       DPPC     C22      CTL2    -0.220000       12.0110           0
      2114 MEMB     17       DPPC     H2R      HAL2     0.900000E-01   1.00800           0
      2115 MEMB     17       DPPC     H2S      HAL2     0.900000E-01   1.00800           0
      2116 MEMB     17       DPPC     C3       CTL2     0.800000E-01   12.0110           0
      2117 MEMB     17       DPPC     HX       HAL2     0.900000E-01   1.00800           0
      2118 MEMB     17       DPPC     HY       HAL2     0.900000E-01   1.00800           0
      2119 MEMB     17       DPPC     O31      OSL     -0.490000       15.9994           0
      2120 MEMB     17       DPPC     C31      CL       0.900000       12.0110           0
      2121 MEMB     17       DPPC     O32      OBL     -0.630000       15.9994           0
      2122 MEMB     17       DPPC     C32      CTL2    -0.220000       12.0110           0
      2123 MEMB     17       DPPC     H2X      HAL2     0.900000E-01   1.00800           0
      2124 MEMB     17       DPPC     H2Y      HAL2     0.900000E-01   1.00800           0
      2125 MEMB     17       DPPC     C23      CTL2    -0.180000       12.0110           0
      2126 MEMB     17       DPPC     H3R      HAL2     0.900000E-01   1.00800           0
      2127 MEMB     17       DPPC     H3S      HAL2     0.900000E-01   1.00800           0
      2128 MEMB     17       DPPC     C24      CTL2    -0.180000       12.0110           0
      2129 MEMB     17       DPPC     H4R      HAL2     0.900000E-01   1.00800           0
      2130 MEMB     17       DPPC     H4S      HAL2     0.900000E-01   1.00800           0
      2131 MEMB     17       DPPC     C25      CTL2    -0.180000       12.0110           0
      2132 MEMB     17       DPPC     H5R      HAL2     0.900000E-01   1.00800           0
      2133 MEMB     17       DPPC     H5S      HAL2     0.900000E-01   1.00800           0
      2134 MEMB     17       DPPC     C26      CTL2    -0.180000       12.0110           0
      2135 MEMB     17       DPPC     H6R      HAL2     0.900000E-01   1.00800           0
      2136 MEMB     17       DPPC     H6S      HAL2     0.900000E-01   1.00800           0
      2137 MEMB     17       DPPC     C27      CTL2    -0.180000       12.0110           0
      2138 MEMB     17       DPPC     H7R      HAL2     0.900000E-01   1.00800           0
      2139 MEMB     17       DPPC     H7S      HAL2     0.900000E-01   1.00800           0
      2140 MEMB     17       DPPC     C28      CTL2    -0.180000       12.0110           0
      2141 MEMB     17       DPPC     H8R      HAL2     0.900000E-01   1.00800           0
      2142 MEMB     17       DPPC     H8S      HAL2     0.900000E-01   1.00800           0
      2143 MEMB     17       DPPC     C29      CTL2    -0.180000       12.0110           0
      2144 MEMB     17       DPPC     H9R      HAL2     0.900000E-01   1.00800           0
      2145 MEMB     17       DPPC     H9S      HAL2     0.900000E-01   1.00800           0
      2146 MEMB     17       DPPC     C210     CTL2    -0.180000       12.0110           0
      2147 MEMB     17       DPPC     H10R     HAL2     0.900000E-01   1.00800           0
      2148 MEMB     17       DPPC     H10S     HAL2     0.900000E-01   1.00800           0
      2149 MEMB     17       DPPC     C211     CTL2    -0.180000       12.0110           0
      2150 MEMB     17       DPPC     H11R     HAL2     0.900000E-01   1.00800           0
      2151 MEMB     17       DPPC     H11S     HAL2     0.900000E-01   1.00800           0
      2152 MEMB     17       DPPC     C212     CTL2    -0.180000       12.0110           0
      2153 MEMB     17       DPPC     H12R     HAL2     0.900000E-01   1.00800           0
      2154 MEMB     17       DPPC     H12S     HAL2     0.900000E-01   1.00800           0
      2155 MEMB     17       DPPC     C213     CTL2    -0.180000       12.0110           0
      2156 MEMB     17       DPPC     H13R     HAL2     0.900000E-01   1.00800           0
      2157 MEMB     17       DPPC     H13S     HAL2     0.900000E-01   1.00800           0
      2158 MEMB     17       DPPC     C214     CTL2    -0.180000       12.0110           0
      2159 MEMB     17       DPPC     H14R     HAL2     0.900000E-01   1.00800           0
      2160 MEMB     17       DPPC     H14S     HAL2     0.900000E-01   1.00800           0
      2161 MEMB     17       DPPC     C215     CTL2    -0.180000       12.0110           0
      2162 MEMB     17       DPPC     H15R     HAL2     0.900000E-01   1.00800           0
      2163 MEMB     17       DPPC     H15S     HAL2     0.900000E-01   1.00800           0
      2164 MEMB     17       DPPC     C216     CTL3    -0.270000       12.0110           0
      2165 MEMB     17       DPPC     H16R     HAL3     0.900000E-01   1.00800           0
      2166 MEMB     17       DPPC     H16S     HAL3     0.900000E-01   1.00800           0
      2167 MEMB     17       DPPC     H16T     HAL3     0.900000E-01   1.00800           0
      2168 MEMB     17       DPPC     C33      CTL2    -0.180000       12.0110           0
      2169 MEMB     17       DPPC     H3X      HAL2     0.900000E-01   1.00800           0
      2170 MEMB     17       DPPC     H3Y      HAL2     0.900000E-01   1.00800           0
      2171 MEMB     17       DPPC     C34      CTL2    -0.180000       12.0110           0
      2172 MEMB     17       DPPC     H4X      HAL2     0.900000E-01   1.00800           0
      2173 MEMB     17       DPPC     H4Y      HAL2     0.900000E-01   1.00800           0
      2174 MEMB     17       DPPC     C35      CTL2    -0.180000       12.0110           0
      2175 MEMB     17       DPPC     H5X      HAL2     0.900000E-01   1.00800           0
      2176 MEMB     17       DPPC     H5Y      HAL2     0.900000E-01   1.00800           0
      2177 MEMB     17       DPPC     C36      CTL2    -0.180000       12.0110           0
      2178 MEMB     17       DPPC     H6X      HAL2     0.900000E-01   1.00800           0
      2179 MEMB     17       DPPC     H6Y      HAL2     0.900000E-01   1.00800           0
      2180 MEMB     17       DPPC     C37      CTL2    -0.180000       12.0110           0
      2181 MEMB     17       DPPC     H7X      HAL2     0.900000E-01   1.00800           0
      2182 MEMB     17       DPPC     H7Y      HAL2     0.900000E-01   1.00800           0
      2183 MEMB     17       DPPC     C38      CTL2    -0.180000       12.0110           0
      2184 MEMB     17       DPPC     H8X      HAL2     0.900000E-01   1.00800           0
      2185 MEMB     17       DPPC     H8Y      HAL2     0.900000E-01   1.00800           0
      2186 MEMB     17       DPPC     C39      CTL2    -0.180000       12.0110           0
      2187 MEMB     17       DPPC     H9X      HAL2     0.900000E-01   1.00800           0
      2188 MEMB     17       DPPC     H9Y      HAL2     0.900000E-01   1.00800           0
      2189 MEMB     17       DPPC     C310     CTL2    -0.180000       12.0110           0
      2190 MEMB     17       DPPC     H10X     HAL2     0.900000E-01   1.00800           0
      2191 MEMB     17       DPPC     H10Y     HAL2     0.900000E-01   1.00800           0
      2192 MEMB     17       DPPC     C311     CTL2    -0.180000       12.0110           0
      2193 MEMB     17       DPPC     H11X     HAL2     0.900000E-01   1.00800           0
      2194 MEMB     17       DPPC     H11Y     HAL2     0.900000E-01   1.00800           0
      2195 MEMB     17       DPPC     C312     CTL2    -0.180000       12.0110           0
      2196 MEMB     17       DPPC     H12X     HAL2     0.900000E-01   1.00800           0
      2197 MEMB     17       DPPC     H12Y     HAL2     0.900000E-01   1.00800           0
      2198 MEMB     17       DPPC     C313     CTL2    -0.180000       12.0110           0
      2199 MEMB     17       DPPC     H13X     HAL2     0.900000E-01   1.00800           0
      2200 MEMB     17       DPPC     H13Y     HAL2     0.900000E-01   1.00800           0
      2201 MEMB     17       DPPC     C314     CTL2    -0.180000       12.0110           0
      2202 MEMB     17       DPPC     H14X     HAL2     0.900000E-01   1.00800           0
      2203 MEMB     17       DPPC     H14Y     HAL2     0.900000E-01   1.00800           0
      2204 MEMB     17       DPPC     C315     CTL2    -0.180000       12.0110           0
      2205 MEMB     17       DPPC     H15X     HAL2     0.900000E-01   1.00800           0
      2206 MEMB     17       DPPC     H15Y     HAL2     0.900000E-01   1.00800           0
      2207 MEMB     17       DPPC     C316     CTL3    -0.270000       12.0110           0
      2208 MEMB     17       DPPC     H16X     HAL3     0.900000E-01   1.00800           0
      2209 MEMB     17       DPPC     H16Y     HAL3     0.900000E-01   1.00800           0
      2210 MEMB     17       DPPC     H16Z     HAL3     0.900000E-01   1.00800           0
      2211 MEMB     18       DPPC     N        NTL     -0.600000       14.0070           0
      2212 MEMB     18       DPPC     C13      CTL5    -0.350000       12.0110           0
      2213 MEMB     18       DPPC     H13A     HL       0.250000       1.00800           0
      2214 MEMB     18       DPPC     H13B     HL       0.250000       1.00800           0
      2215 MEMB     18       DPPC     H13C     HL       0.250000       1.00800           0
      2216 MEMB     18       DPPC     C14      CTL5    -0.350000       12.0110           0
      2217 MEMB     18       DPPC     H14A     HL       0.250000       1.00800           0
      2218 MEMB     18       DPPC     H14B     HL       0.250000       1.00800           0
      2219 MEMB     18       DPPC     H14C     HL       0.250000       1.00800           0
      2220 MEMB     18       DPPC     C15      CTL5    -0.350000       12.0110           0
      2221 MEMB     18       DPPC     H15A     HL       0.250000       1.00800           0
      2222 MEMB     18       DPPC     H15B     HL       0.250000       1.00800           0
      2223 MEMB     18       DPPC     H15C     HL       0.250000       1.00800           0
      2224 MEMB     18       DPPC     C12      CTL2    -0.100000       12.0110           0
      2225 MEMB     18       DPPC     H12A     HL       0.250000       1.00800           0
      2226 MEMB     18       DPPC     H12B     HL       0.250000       1.00800           0
      2227 MEMB     18       DPPC     C11      CTL2    -0.800000E-01   12.0110           0
      2228 MEMB     18       DPPC     H11A     HAL2     0.900000E-01   1.00800           0
      2229 MEMB     18       DPPC     H11B     HAL2     0.900000E-01   1.00800           0
      2230 MEMB     18       DPPC     P        PL       1.500000       30.9740           0
      2231 MEMB     18       DPPC     O13      O2L     -0.780000       15.9994           0
      2232 MEMB     18       DPPC     O14      O2L     -0.780000       15.9994           0
      2233 MEMB     18       DPPC     O11      OSLP    -0.570000       15.9994           0
      2234 MEMB     18       DPPC     O12      OSLP    -0.570000       15.9994           0
      2235 MEMB     18       DPPC     C1       CTL2    -0.800000E-01   12.0110           0
      2236 MEMB     18       DPPC     HA       HAL2     0.900000E-01   1.00800           0
      2237 MEMB     18       DPPC     HB       HAL2     0.900000E-01   1.00800           0
      2238 MEMB     18       DPPC     C2       CTL1     0.170000       12.0110           0
      2239 MEMB     18       DPPC     HS       HAL1     0.900000E-01   1.00800           0
      2240 MEMB     18       DPPC     O21      OSL     -0.490000       15.9994           0
      2241 MEMB     18       DPPC     C21      CL       0.900000       12.0110           0
      2242 MEMB     18       DPPC     O22      OBL     -0.630000       15.9994           0
      2243 MEMB     18       DPPC     C22      CTL2    -0.220000       12.0110           0
      2244 MEMB     18       DPPC     H2R      HAL2     0.900000E-01   1.00800           0
      2245 MEMB     18       DPPC     H2S      HAL2     0.900000E-01   1.00800           0
      2246 MEMB     18       DPPC     C3       CTL2     0.800000E-01   12.0110           0
      2247 MEMB     18       DPPC     HX       HAL2     0.900000E-01   1.00800           0
      2248 MEMB     18       DPPC     HY       HAL2     0.900000E-01   1.00800           0
      2249 MEMB     18       DPPC     O31      OSL     -0.490000       15.9994           0
      2250 MEMB     18       DPPC     C31      CL       0.900000       12.0110           0
      2251 MEMB     18       DPPC     O32      OBL     -0.630000       15.9994           0
      2252 MEMB     18       DPPC     C32      CTL2    -0.220000       12.0110           0
      2253 MEMB     18       DPPC     H2X      HAL2     0.900000E-01   1.00800           0
      2254 MEMB     18       DPPC     H2Y      HAL2     0.900000E-01   1.00800           0
      2255 MEMB     18       DPPC     C23      CTL2    -0.180000       12.0110           0
      2256 MEMB     18       DPPC     H3R      HAL2     0.900000E-01   1.00800           0
      2257 MEMB     18       DPPC     H3S      HAL2     0.900000E-01   1.00800           0
      2258 MEMB     18       DPPC     C24      CTL2    -0.180000       12.0110           0
      2259 MEMB     18       DPPC     H4R      HAL2     0.900000E-01   1.00800           0
      2260 MEMB     18       DPPC     H4S      HAL2     0.900000E-01   1.00800           0
      2261 MEMB     18       DPPC     C25      CTL2    -0.180000       12.0110           0
      2262 MEMB     18       DPPC     H5R      HAL2     0.900000E-01   1.00800           0
      2263 MEMB     18       DPPC     H5S      HAL2     0.900000E-01   1.00800           0
      2264 MEMB     18       DPPC     C26      CTL2    -0.180000       12.0110           0
      2265 MEMB     18       DPPC     H6R      HAL2     0.900000E-01   1.00800           0
      2266 MEMB     18       DPPC     H6S      HAL2     0.900000E-01   1.00800           0
      2267 MEMB     18       DPPC     C27      CTL2    -0.180000       12.0110           0
      2268 MEMB     18       DPPC     H7R      HAL2     0.900000E-01   1.00800           0
      2269 MEMB     18       DPPC     H7S      HAL2     0.900000E-01   1.00800           0
      2270 MEMB     18       DPPC     C28      CTL2    -0.180000       12.0110           0
      2271 MEMB     18       DPPC     H8R      HAL2     0.900000E-01   1.00800           0
      2272 MEMB     18       DPPC     H8S      HAL2     0.900000E-01   1.00800           0
      2273 MEMB     18       DPPC     C29      CTL2    -0.180000       12.0110           0
      2274 MEMB     18       DPPC     H9R      HAL2     0.900000E-01   1.00800           0
      2275 MEMB     18       DPPC     H9S      HAL2     0.900000E-01   1.00800           0
      2276 MEMB     18       DPPC     C210     CTL2    -0.180000       12.0110           0
      2277 MEMB     18       DPPC     H10R     HAL2     0.900000E-01   1.00800           0
      2278 MEMB     18       DPPC     H10S     HAL2     0.900000E-01   1.00800           0
      2279 MEMB     18       DPPC     C211     CTL2    -0.180000       12.0110           0
      2280 MEMB     18       DPPC     H11R     HAL2     0.900000E-01   1.00800           0
      2281 MEMB     18       DPPC     H11S     HAL2     0.900000E-01   1.00800           0
      2282 MEMB     18       DPPC     C212     CTL2    -0.180000       12.0110           0
      2283 MEMB     18       DPPC     H12R     HAL2     0.900000E-01   1.00800           0
      2284 MEMB     18       DPPC     H12S     HAL2     0.900000E-01   1.00800           0
      2285 MEMB     18       DPPC     C213     CTL2    -0.180000       12.0110           0
      2286 MEMB     18       DPPC     H13R     HAL2     0.900000E-01   1.00800           0
      2287 MEMB     18       DPPC     H13S     HAL2     0.900000E-01   1.00800           0
      2288 MEMB     18       DPPC     C214     CTL2    -0.180000       12.0110           0
      2289 MEMB     18       DPPC     H14R     HAL2     0.900000E-01   1.00800           0
      2290 MEMB     18       DPPC     H14S     HAL2     0.900000E-01   1.00800           0
      2291 MEMB     18       DPPC     C215     CTL2    -0.180000       12.0110           0
      2292 MEMB     18       DPPC     H15R     HAL2     0.900000E-01   1.00800           0
      2293 MEMB     18       DPPC     H15S     HAL2     0.900000E-01   1.00800           0
      2294 MEMB     18       DPPC     C216     CTL3    -0.270000       12.0110           0
      2295 MEMB     18       DPPC     H16R     HAL3     0.900000E-01   1.00800           0
      2296 MEMB     18       DPPC     H16S     HAL3     0.900000E-01   1.00800           0
      2297 MEMB     18       DPPC     H16T     HAL3     0.900000E-01   1.00800           0
      2298 MEMB     18       DPPC     C33      CTL2    -0.180000       12.0110           0
      2299 MEMB     18       DPPC     H3X      HAL2     0.900000E-01   1.00800           0
      2300 MEMB     18       DPPC     H3Y      HAL2     0.900000E-01   1.00800           0
      2301 MEMB     18       DPPC     C34      CTL2    -0.180000       12.0110           0
      2302 MEMB     18       DPPC     H4X      HAL2     0.900000E-01   1.00800           0
      2303 MEMB     18       DPPC     H4Y      HAL2     0.900000E-01   1.00800           0
      2304 MEMB     18       DPPC     C35      CTL2    -0.180000       12.0110           0
      2305 MEMB     18       DPPC     H5X      HAL2     0.900000E-01   1.00800           0
      2306 MEMB     18       DPPC     H5Y      HAL2     0.900000E-01   1.00800           0
      2307 MEMB     18       DPPC     C36      CTL2    -0.180000       12.0110           0
      2308 MEMB     18       DPPC     H6X      HAL2     0.900000E-01   1.00800           0
      2309 MEMB     18       DPPC     H6Y      HAL2     0.900000E-01   1.00800           0
      2310 MEMB     18       DPPC     C37      CTL2    -0.180000       12.0110           0
      2311 MEMB     18       DPPC     H7X      HAL2     0.900000E-01   1.00800           0
      2312 MEMB     18       DPPC     H7Y      HAL2     0.900000E-01   1.00800           0
      2313 MEMB     18       DPPC     C38      CTL2    -0.180000       12.0110           0
      2314 MEMB     18       DPPC     H8X      HAL2     0.900000E-01   1.00800           0
      2315 MEMB     18       DPPC     H8Y      HAL2     0.900000E-01   1.00800           0
      2316 MEMB     18       DPPC     C39      CTL2    -0.180000       12.0110           0
      2317 MEMB     18       DPPC     H9X      HAL2     0.900000E-01   1.00800           0
      2318 MEMB     18       DPPC     H9Y      HAL2     0.900000E-01   1.00800           0
      2319 MEMB     18       DPPC     C310     CTL2    -0.180000       12.0110           0
      2320 MEMB     18       DPPC     H10X     HAL2     0.900000E-01   1.00800           0
      2321 MEMB     18       DPPC     H10Y     HAL2     0.900000E-01   1.00800           0
      2322 MEMB     18       DPPC     C311     CTL2    -0.180000       12.0110           0
      2323 MEMB     18       DPPC     H11X     HAL2     0.900000E-01   1.00800           0
      2324 MEMB     18       DPPC     H11Y     HAL2     0.900000E-01   1.00800           0
      2325 MEMB     18       DPPC     C312     CTL2    -0.180000       12.0110           0
      2326 MEMB     18       DPPC     H12X     HAL2     0.900000E-01   1.00800           0
      2327 MEMB     18       DPPC     H12Y     HAL2     0.900000E-01   1.00800           0
      2328 MEMB     18       DPPC     C313     CTL2    -0.180000       12.0110           0
      2329 MEMB     18       DPPC     H13X     HAL2     0.900000E-01   1.00800           0
      2330 MEMB     18       DPPC     H13Y     HAL2     0.900000E-01   1.00800           0
      2331 MEMB     18       DPPC     C314     CTL2    -0.180000       12.0110           0
      2332 MEMB     18       DPPC     H14X     HAL2     0.900000E-01   1.00800           0
      2333 MEMB     18       DPPC     H14Y     HAL2     0.900000E-01   1.00800           0
      2334 MEMB     18       DPPC     C315     CTL2    -0.180000       12.0110           0
      2335 MEMB     18       DPPC     H15X     HAL2     0.900000E-01   1.00800           0
      2336 MEMB     18       DPPC     H15Y     HAL2     0.900000E-01   1.00800           0
      2337 MEMB     18       DPPC     C316     CTL3    -0.270000       12.0110           0
      2338 MEMB     18       DPPC     H16X     HAL3     0.900000E-01   1.00800           0
      2339 MEMB     18       DPPC     H16Y     HAL3     0.900000E-01   1.00800           0
      2340 MEMB     18       DPPC     H16Z     HAL3     0.900000E-01   1.00800           0
      2341 MEMB     19       DPPC     N        NTL     -0.600000       14.0070           0
      2342 MEMB     19       DPPC     C13      CTL5    -0.350000       12.0110           0
      2343 MEMB     19       DPPC     H13A     HL       0.250000       1.00800           0
      2344 MEMB     19       DPPC     H13B     HL       0.250000       1.00800           0
      2345 MEMB     19       DPPC     H13C     HL       0.250000       1.00800           0
      2346 MEMB     19       DPPC     C14      CTL5    -0.350000       12.0110           0
      2347 MEMB     19       DPPC     H14A     HL       0.250000       1.00800           0
      2348 MEMB     19       DPPC     H14B     HL       0.250000       1.00800           0
      2349 MEMB     19       DPPC     H14C     HL       0.250000       1.00800           0
      2350 MEMB     19       DPPC     C15      CTL5    -0.350000       12.0110           0
      2351 MEMB     19       DPPC     H15A     HL       0.250000       1.00800           0
      2352 MEMB     19       DPPC     H15B     HL       0.250000       1.00800           0
      2353 MEMB     19       DPPC     H15C     HL       0.250000       1.00800           0
      2354 MEMB     19       DPPC     C12      CTL2    -0.100000       12.0110           0
      2355 MEMB     19       DPPC     H12A     HL       0.250000       1.00800           0
      2356 MEMB     19       DPPC     H12B     HL       0.250000       1.00800           0
      2357 MEMB     19       DPPC     C11      CTL2    -0.800000E-01   12.0110           0
      2358 MEMB     19       DPPC     H11A     HAL2     0.900000E-01   1.00800           0
      2359 MEMB     19       DPPC     H11B     HAL2     0.900000E-01   1.00800           0
      2360 MEMB     19       DPPC     P        PL       1.500000       30.9740           0
      2361 MEMB     19       DPPC     O13      O2L     -0.780000       15.9994           0
      2362 MEMB     19       DPPC     O14      O2L     -0.780000       15.9994           0
      2363 MEMB     19       DPPC     O11      OSLP    -0.570000       15.9994           0
      2364 MEMB     19       DPPC     O12      OSLP    -0.570000       15.9994           0
      2365 MEMB     19       DPPC     C1       CTL2    -0.800000E-01   12.0110           0
      2366 MEMB     19       DPPC     HA       HAL2     0.900000E-01   1.00800           0
      2367 MEMB     19       DPPC     HB       HAL2     0.900000E-01   1.00800           0
      2368 MEMB     19       DPPC     C2       CTL1     0.170000       12.0110           0
      2369 MEMB     19       DPPC     HS       HAL1     0.900000E-01   1.00800           0
      2370 MEMB     19       DPPC     O21      OSL     -0.490000       15.9994           0
      2371 MEMB     19       DPPC     C21      CL       0.900000       12.0110           0
      2372 MEMB     19       DPPC     O22      OBL     -0.630000       15.9994           0
      2373 MEMB     19       DPPC     C22      CTL2    -0.220000       12.0110           0
      2374 MEMB     19       DPPC     H2R      HAL2     0.900000E-01   1.00800           0
      2375 MEMB     19       DPPC     H2S      HAL2     0.900000E-01   1.00800           0
      2376 MEMB     19       DPPC     C3       CTL2     0.800000E-01   12.0110           0
      2377 MEMB     19       DPPC     HX       HAL2     0.900000E-01   1.00800           0
      2378 MEMB     19       DPPC     HY       HAL2     0.900000E-01   1.00800           0
      2379 MEMB     19       DPPC     O31      OSL     -0.490000       15.9994           0
      2380 MEMB     19       DPPC     C31      CL       0.900000       12.0110           0
      2381 MEMB     19       DPPC     O32      OBL     -0.630000       15.9994           0
      2382 MEMB     19       DPPC     C32      CTL2    -0.220000       12.0110           0
      2383 MEMB     19       DPPC     H2X      HAL2     0.900000E-01   1.00800           0
      2384 MEMB     19       DPPC     H2Y      HAL2     0.900000E-01   1.00800           0
      2385 MEMB     19       DPPC     C23      CTL2    -0.180000       12.0110           0
      2386 MEMB     19       DPPC     H3R      HAL2     0.900000E-01   1.00800           0
      2387 MEMB     19       DPPC     H3S      HAL2     0.900000E-01   1.00800           0
      2388 MEMB     19       DPPC     C24      CTL2    -0.180000       12.0110           0
      2389 MEMB     19       DPPC     H4R      HAL2     0.900000E-01   1.00800           0
      2390 MEMB     19       DPPC     H4S      HAL2     0.900000E-01   1.00800           0
      2391 MEMB     19       DPPC     C25      CTL2    -0.180000       12.0110           0
      2392 MEMB     19       DPPC     H5R      HAL2     0.900000E-01   1.00800           0
      2393 MEMB     19       DPPC     H5S      HAL2     0.900000E-01   1.00800           0
      2394 MEMB     19       DPPC     C26      CTL2    -0.180000       12.0110           0
      2395 MEMB     19       DPPC     H6R      HAL2     0.900000E-01   1.00800           0
      2396 MEMB     19       DPPC     H6S      HAL2     0.900000E-01   1.00800           0
      2397 MEMB     19       DPPC     C27      CTL2    -0.180000       12.0110           0
      2398 MEMB     19       DPPC     H7R      HAL2     0.900000E-01   1.00800           0
      2399 MEMB     19       DPPC     H7S      HAL2     0.900000E-01   1.00800           0
      2400 MEMB     19       DPPC     C28      CTL2    -0.180000       12.0110           0
      2401 MEMB     19       DPPC     H8R      HAL2     0.900000E-01   1.00800           0
      2402 MEMB     19       DPPC     H8S      HAL2     0.900000E-01   1.00800           0
      2403 MEMB     19       DPPC     C29      CTL2    -0.180000       12.0110           0
      2404 MEMB     19       DPPC     H9R      HAL2     0.900000E-01   1.00800           0
      2405 MEMB     19       DPPC     H9S      HAL2     0.900000E-01   1.00800           0
      2406 MEMB     19       DPPC     C210     CTL2    -0.180000       12.0110           0
      2407 MEMB     19       DPPC     H10R     HAL2     0.900000E-01   1.00800           0
      2408 MEMB     19       DPPC     H10S     HAL2     0.900000E-01   1.00800           0
      2409 MEMB     19       DPPC     C211     CTL2    -0.180000       12.0110           0
      2410 MEMB     19       DPPC     H11R     HAL2     0.900000E-01   1.00800           0
      2411 MEMB     19       DPPC     H11S     HAL2     0.900000E-01   1.00800           0
      2412 MEMB     19       DPPC     C212     CTL2    -0.180000       12.0110           0
      2413 MEMB     19       DPPC     H12R     HAL2     0.900000E-01   1.00800           0
      2414 MEMB     19       DPPC     H12S     HAL2     0.900000E-01   1.00800           0
      2415 MEMB     19       DPPC     C213     CTL2    -0.180000       12.0110           0
      2416 MEMB     19       DPPC     H13R     HAL2     0.900000E-01   1.00800           0
      2417 MEMB     19       DPPC     H13S     HAL2     0.900000E-01   1.00800           0
      2418 MEMB     19       DPPC     C214     CTL2    -0.180000       12.0110           0
      2419 MEMB     19       DPPC     H14R     HAL2     0.900000E-01   1.00800           0
      2420 MEMB     19       DPPC     H14S     HAL2     0.900000E-01   1.00800           0
      2421 MEMB     19       DPPC     C215     CTL2    -0.180000       12.0110           0
      2422 MEMB     19       DPPC     H15R     HAL2     0.900000E-01   1.00800           0
      2423 MEMB     19       DPPC     H15S     HAL2     0.900000E-01   1.00800           0
      2424 MEMB     19       DPPC     C216     CTL3    -0.270000       12.0110           0
      2425 MEMB     19       DPPC     H16R     HAL3     0.900000E-01   1.00800           0
      2426 MEMB     19       DPPC     H16S     HAL3     0.900000E-01   1.00800           0
      2427 MEMB     19       DPPC     H16T     HAL3     0.900000E-01   1.00800           0
      2428 MEMB     19       DPPC     C33      CTL2    -0.180000       12.0110           0
      2429 MEMB     19       DPPC     H3X      HAL2     0.900000E-01   1.00800           0
      2430 MEMB     19       DPPC     H3Y      HAL2     0.900000E-01   1.00800           0
      2431 MEMB     19       DPPC     C34      CTL2    -0.180000       12.0110           0
      2432 MEMB     19       DPPC     H4X      HAL2     0.900000E-01   1.00800           0
      2433 MEMB     19       DPPC     H4Y      HAL2     0.900000E-01   1.00800           0
      2434 MEMB     19       DPPC     C35      CTL2    -0.180000       12.0110           0
      2435 MEMB     19       DPPC     H5X      HAL2     0.900000E-01   1.00800           0
      2436 MEMB     19       DPPC     H5Y      HAL2     0.900000E-01   1.00800           0
      2437 MEMB     19       DPPC     C36      CTL2    -0.180000       12.0110           0
      2438 MEMB     19       DPPC     H6X      HAL2     0.900000E-01   1.00800           0
      2439 MEMB     19       DPPC     H6Y      HAL2     0.900000E-01   1.00800           0
      2440 MEMB     19       DPPC     C37      CTL2    -0.180000       12.0110           0
      2441 MEMB     19       DPPC     H7X      HAL2     0.900000E-01   1.00800           0
      2442 MEMB     19       DPPC     H7Y      HAL2     0.900000E-01   1.00800           0
      2443 MEMB     19       DPPC     C38      CTL2    -0.180000       12.0110           0
      2444 MEMB     19       DPPC     H8X      HAL2     0.900000E-01   1.00800           0
      2445 MEMB     19       DPPC     H8Y      HAL2     0.900000E-01   1.00800           0
      2446 MEMB     19       DPPC     C39      CTL2    -0.180000       12.0110           0
      2447 MEMB     19       DPPC     H9X      HAL2     0.900000E-01   1.00800           0
      2448 MEMB     19       DPPC     H9Y      HAL2     0.900000E-01   1.00800           0
      2449 MEMB     19       DPPC     C310     CTL2    -0.180000       12.0110           0
      2450 MEMB     19       DPPC     H10X     HAL2     0.900000E-01   1.00800           0
      2451 MEMB     19       DPPC     H10Y     HAL2     0.900000E-01   1.00800           0
      2452 MEMB     19       DPPC     C311     CTL2    -0.180000       12.0110           0
      2453 MEMB     19       DPPC     H11X     HAL2     0.900000E-01   1.00800           0
      2454 MEMB     19       DPPC     H11Y     HAL2     0.900000E-01   1.00800           0
      2455 MEMB     19       DPPC     C312     CTL2    -0.180000       12.0110           0
      2456 MEMB     19       DPPC     H12X     HAL2     0.900000E-01   1.00800           0
      2457 MEMB     19       DPPC     H12Y     HAL2     0.900000E-01   1.00800           0
      2458 MEMB     19       DPPC     C313     CTL2    -0.180000       12.0110           0
      2459 MEMB     19       DPPC     H13X     HAL2     0.900000E-01   1.00800           0
      2460 MEMB     19       DPPC     H13Y     HAL2     0.900000E-01   1.00800           0
      2461 MEMB     19       DPPC     C314     CTL2    -0.180000       12.0110           0
      2462 MEMB     19       DPPC     H14X     HAL2     0.900000E-01   1.00800           0
      2463 MEMB     19       DPPC     H14Y     HAL2     0.900000E-01   1.00800           0
      2464 MEMB     19       DPPC     C315     CTL2    -0.180000       12.0110           0
      2465 MEMB     19       DPPC     H15X     HAL2     0.900000E-01   1.00800           0
      2466 MEMB     19       DPPC     H15Y     HAL2     0.900000E-01   1.00800           0
      2467 MEMB     19       DPPC     C316     CTL3    -0.270000       12.0110           0
      2468 MEMB     19       DPPC     H16X     HAL3     0.900000E-01   1.00800           0
      2469 MEMB     19       DPPC     H16Y     HAL3     0.900000E-01   1.00800           0
      2470 MEMB     19       DPPC     H16Z     HAL3     0.900000E-01   1.00800           0
      2471 MEMB     20       DPPC     N        NTL     -0.600000       14.0070           0
      2472 MEMB     20       DPPC     C13      CTL5    -0.350000       12.0110           0
      2473 MEMB     20       DPPC     H13A     HL       0.250000       1.00800           0
      2474 MEMB     20       DPPC     H13B     HL       0.250000       1.00800           0
      2475 MEMB     20       DPPC     H13C     HL       0.250000       1.00800           0
      2476 MEMB     20       DPPC     C14      CTL5    -0.350000       12.0110           0
      2477 MEMB     20       DPPC     H14A     HL       0.250000       1.00800           0
      2478 MEMB     20       DPPC     H14B     HL       0.250000       1.00800           0
      2479 MEMB     20       DPPC     H14C     HL       0.250000       1.00800           0
      2480 MEMB     20       DPPC     C15      CTL5    -0.350000       12.0110           0
      2481 MEMB     20       DPPC     H15A     HL       0.250000       1.00800           0
      2482 MEMB     20       DPPC     H15B     HL       0.250000       1.00800           0
      2483 MEMB     20       DPPC     H15C     HL       0.250000       1.00800           0
      2484 MEMB     20       DPPC     C12      CTL2    -0.100000       12.0110           0
      2485 MEMB     20       DPPC     H12A     HL       0.250000       1.00800           0
      2486 MEMB     20       DPPC     H12B     HL       0.250000       1.00800           0
      2487 MEMB     20       DPPC     C11      CTL2    -0.800000E-01   12.0110           0
      2488 MEMB     20       DPPC     H11A     HAL2     0.900000E-01   1.00800           0
      2489 MEMB     20       DPPC     H11B     HAL2     0.900000E-01   1.00800           0
      2490 MEMB     20       DPPC     P        PL       1.500000       30.9740           0
      2491 MEMB     20       DPPC     O13      O2L     -0.780000       15.9994           0
      2492 MEMB     20       DPPC     O14      O2L     -0.780000       15.9994           0
      2493 MEMB     20       DPPC     O11      OSLP    -0.570000       15.9994           0
      2494 MEMB     20       DPPC     O12      OSLP    -0.570000       15.9994           0
      2495 MEMB     20       DPPC     C1       CTL2    -0.800000E-01   12.0110           0
      2496 MEMB     20       DPPC     HA       HAL2     0.900000E-01   1.00800           0
      2497 MEMB     20       DPPC     HB       HAL2     0.900000E-01   1.00800           0
      2498 MEMB     20       DPPC     C2       CTL1     0.170000       12.0110           0
      2499 MEMB     20       DPPC     HS       HAL1     0.900000E-01   1.00800           0
      2500 MEMB     20       DPPC     O21      OSL     -0.490000       15.9994           0
      2501 MEMB     20       DPPC     C21      CL       0.900000       12.0110           0
      2502 MEMB     20       DPPC     O22      OBL     -0.630000       15.9994           0
      2503 MEMB     20       DPPC     C22      CTL2    -0.220000       12.0110           0
      2504 MEMB     20       DPPC     H2R      HAL2     0.900000E-01   1.00800           0
      2505 MEMB     20       DPPC     H2S      HAL2     0.900000E-01   1.00800           0
      2506 MEMB     20       DPPC     C3       CTL2     0.800000E-01   12.0110           0
      2507 MEMB     20       DPPC     HX       HAL2     0.900000E-01   1.00800           0
      2508 MEMB     20       DPPC     HY       HAL2     0.900000E-01   1.00800           0
      2509 MEMB     20       DPPC     O31      OSL     -0.490000       15.9994           0
      2510 MEMB     20       DPPC     C31      CL       0.900000       12.0110           0
      2511 MEMB     20       DPPC     O32      OBL     -0.630000       15.9994           0
      2512 MEMB     20       DPPC     C32      CTL2    -0.220000       12.0110           0
      2513 MEMB     20       DPPC     H2X      HAL2     0.900000E-01   1.00800           0
      2514 MEMB     20       DPPC     H2Y      HAL2     0.900000E-01   1.00800           0
      2515 MEMB     20       DPPC     C23      CTL2    -0.180000       12.0110           0
      2516 MEMB     20       DPPC     H3R      HAL2     0.900000E-01   1.00800           0
      2517 MEMB     20       DPPC     H3S      HAL2     0.900000E-01   1.00800           0
      2518 MEMB     20       DPPC     C24      CTL2    -0.180000       12.0110           0
      2519 MEMB     20       DPPC     H4R      HAL2     0.900000E-01   1.00800           0
      2520 MEMB     20       DPPC     H4S      HAL2     0.900000E-01   1.00800           0
      2521 MEMB     20       DPPC     C25      CTL2    -0.180000       12.0110           0
      2522 MEMB     20       DPPC     H5R      HAL2     0.900000E-01   1.00800           0
      2523 MEMB     20       DPPC     H5S      HAL2     0.900000E-01   1.00800           0
      2524 MEMB     20       DPPC     C26      CTL2    -0.180000       12.0110           0
      2525 MEMB     20       DPPC     H6R      HAL2     0.900000E-01   1.00800           0
      2526 MEMB     20       DPPC     H6S      HAL2     0.900000E-01   1.00800           0
      2527 MEMB     20       DPPC     C27      CTL2    -0.180000       12.0110           0
      2528 MEMB     20       DPPC     H7R      HAL2     0.900000E-01   1.00800           0
      2529 MEMB     20       DPPC     H7S      HAL2     0.900000E-01   1.00800           0
      2530 MEMB     20       DPPC     C28      CTL2    -0.180000       12.0110           0
      2531 MEMB     20       DPPC     H8R      HAL2     0.900000E-01   1.00800           0
      2532 MEMB     20       DPPC     H8S      HAL2     0.900000E-01   1.00800           0
      2533 MEMB     20       DPPC     C29      CTL2    -0.180000       12.0110           0
      2534 MEMB     20       DPPC     H9R      HAL2     0.900000E-01   1.00800           0
      2535 MEMB     20       DPPC     H9S      HAL2     0.900000E-01   1.00800           0
      2536 MEMB     20       DPPC     C210     CTL2    -0.180000       12.0110           0
      2537 MEMB     20       DPPC     H10R     HAL2     0.900000E-01   1.00800           0
      2538 MEMB     20       DPPC     H10S     HAL2     0.900000E-01   1.00800           0
      2539 MEMB     20       DPPC     C211     CTL2    -0.180000       12.0110           0
      2540 MEMB     20       DPPC     H11R     HAL2     0.900000E-01   1.00800           0
      2541 MEMB     20       DPPC     H11S     HAL2     0.900000E-01   1.00800           0
      2542 MEMB     20       DPPC     C212     CTL2    -0.180000       12.0110           0
      2543 MEMB     20       DPPC     H12R     HAL2     0.900000E-01   1.00800           0
      2544 MEMB     20       DPPC     H12S     HAL2     0.900000E-01   1.00800           0
      2545 MEMB     20       DPPC     C213     CTL2    -0.180000       12.0110           0
      2546 MEMB     20       DPPC     H13R     HAL2     0.900000E-01   1.00800           0
      2547 MEMB     20       DPPC     H13S     HAL2     0.900000E-01   1.00800           0
      2548 MEMB     20       DPPC     C214     CTL2    -0.180000       12.0110           0
      2549 MEMB     20       DPPC     H14R     HAL2     0.900000E-01   1.00800           0
      2550 MEMB     20       DPPC     H14S     HAL2     0.900000E-01   1.00800           0
      2551 MEMB     20       DPPC     C215     CTL2    -0.180000       12.0110           0
      2552 MEMB     20       DPPC     H15R     HAL2     0.900000E-01   1.00800           0
      2553 MEMB     20       DPPC     H15S     HAL2     0.900000E-01   1.00800           0
      2554 MEMB     20       DPPC     C216     CTL3    -0.270000       12.0110           0
      2555 MEMB     20       DPPC     H16R     HAL3     0.900000E-01   1.00800           0
      2556 MEMB     20       DPPC     H16S     HAL3     0.900000E-01   1.00800           0
      2557 MEMB     20       DPPC     H16T     HAL3     0.900000E-01   1.00800           0
      2558 MEMB     20       DPPC     C33      CTL2    -0.180000       12.0110           0
      2559 MEMB     20       DPPC     H3X      HAL2     0.900000E-01   1.00800           0
      2560 MEMB     20       DPPC     H3Y      HAL2     0.900000E-01   1.00800           0
      2561 MEMB     20       DPPC     C34      CTL2    -0.180000       12.0110           0
      2562 MEMB     20       DPPC     H4X      HAL2     0.900000E-01   1.00800           0
      2563 MEMB     20       DPPC     H4Y      HAL2     0.900000E-01   1.00800           0
      2564 MEMB     20       DPPC     C35      CTL2    -0.180000       12.0110           0
      2565 MEMB     20       DPPC     H5X      HAL2     0.900000E-01   1.00800           0
      2566 MEMB     20       DPPC     H5Y      HAL2     0.900000E-01   1.00800           0
      2567 MEMB     20       DPPC     C36      CTL2    -0.180000       12.0110           0
      2568 MEMB     20       DPPC     H6X      HAL2     0.900000E-01   1.00800           0
      2569 MEMB     20       DPPC     H6Y      HAL2     0.900000E-01   1.00800           0
      2570 MEMB     20       DPPC     C37      CTL2    -0.180000       12.0110           0
      2571 MEMB     20       DPPC     H7X      HAL2     0.900000E-01   1.00800           0
      2572 MEMB     20       DPPC     H7Y      HAL2     0.900000E-01   1.00800           0
      2573 MEMB     20       DPPC     C38      CTL2    -0.180000       12.0110           0
      2574 MEMB     20       DPPC     H8X      HAL2     0.900000E-01   1.00800           0
      2575 MEMB     20       DPPC     H8Y      HAL2     0.900000E-01   1.00800           0
      2576 MEMB     20       DPPC     C39      CTL2    -0.180000       12.0110           0
      2577 MEMB     20       DPPC     H9X      HAL2     0.900000E-01   1.00800           0
      2578 MEMB     20       DPPC     H9Y      HAL2     0.900000E-01   1.00800           0
      2579 MEMB     20       DPPC     C310     CTL2    -0.180000       12.0110           0
      2580 MEMB     20       DPPC     H10X     HAL2     0.900000E-01   1.00800           0
      2581 MEMB     20       DPPC     H10Y     HAL2     0.900000E-01   1.00800           0
      2582 MEMB     20       DPPC     C311     CTL2    -0.180000       12.0110           0
      2583 MEMB     20       DPPC     H11X     HAL2     0.900000E-01   1.00800           0
      2584 MEMB     20       DPPC     H11Y     HAL2     0.900000E-01   1.00800           0
      2585 MEMB     20       DPPC     C312     CTL2    -0.180000       12.0110           0
      2586 MEMB     20       DPPC     H12X     HAL2     0.900000E-01   1.00800           0
      2587 MEMB     20       DPPC     H12Y     HAL2     0.900000E-01   1.00800           0
      2588 MEMB     20       DPPC     C313     CTL2    -0.180000       12.0110           0
      2589 MEMB     20       DPPC     H13X     HAL2     0.900000E-01   1.00800           0
      2590 MEMB     20       DPPC     H13Y     HAL2     0.900000E-01   1.00800           0
      2591 MEMB     20       DPPC     C314     CTL2    -0.180000       12.0110           0
      2592 MEMB     20       DPPC     H14X     HAL2     0.900000E-01   1.00800           0
      2593 MEMB     20       DPPC     H14Y     HAL2     0.900000E-01   1.00800           0
      2594 MEMB     20       DPPC     C315     CTL2    -0.180000       12.0110           0
      2595 MEMB     20       DPPC     H15X     HAL2     0.900000E-01   1.00800           0
      2596 MEMB     20       DPPC     H15Y     HAL2     0.900000E-01   1.00800           0
      2597 MEMB     20       DPPC     C316     CTL3    -0.270000       12.0110           0
      2598 MEMB     20       DPPC     H16X     HAL3     0.900000E-01   1.00800           0
      2599 MEMB     20       DPPC     H16Y     HAL3     0.900000E-01   1.00800           0
      2600 MEMB     20       DPPC     H16Z     HAL3     0.900000E-01   1.00800           0
      2601 MEMB     21       DPPC     N        NTL     -0.600000       14.0070           0
      2602 MEMB     21       DPPC     C13      CTL5    -0.350000       12.0110           0
      2603 MEMB     21       DPPC     H13A     HL       0.250000       1.00800           0
      2604 MEMB     21       DPPC     H13B     HL       0.250000       1.00800           0
      2605 MEMB     21       DPPC     H13C     HL       0.250000       1.00800           0
      2606 MEMB     21       DPPC     C14      CTL5    -0.350000       12.0110           0
      2607 MEMB     21       DPPC     H14A     HL       0.250000       1.00800           0
      2608 MEMB     21       DPPC     H14B     HL       0.250000       1.00800           0
      2609 MEMB     21       DPPC     H14C     HL       0.250000       1.00800           0
      2610 MEMB     21       DPPC     C15      CTL5    -0.350000       12.0110           0
      2611 MEMB     21       DPPC     H15A     HL       0.250000       1.00800           0
      2612 MEMB     21       DPPC     H15B     HL       0.250000       1.00800           0
      2613 MEMB     21       DPPC     H15C     HL       0.250000       1.00800           0
      2614 MEMB     21       DPPC     C12      CTL2    -0.100000       12.0110           0
      2615 MEMB     21       DPPC     H12A     HL       0.250000       1.00800           0
      2616 MEMB     21       DPPC     H12B     HL       0.250000       1.00800           0
      2617 MEMB     21       DPPC     C11      CTL2    -0.800000E-01   12.0110           0
      2618 MEMB     21       DPPC     H11A     HAL2     0.900000E-01   1.00800           0
      2619 MEMB     21       DPPC     H11B     HAL2     0.900000E-01   1.00800           0
      2620 MEMB     21       DPPC     P        PL       1.500000       30.9740           0
      2621 MEMB     21       DPPC     O13      O2L     -0.780000       15.9994           0
      2622 MEMB     21       DPPC     O14      O2L     -0.780000       15.9994           0
      2623 MEMB     21       DPPC     O11      OSLP    -0.570000       15.9994           0
      2624 MEMB     21       DPPC     O12      OSLP    -0.570000       15.9994           0
      2625 MEMB     21       DPPC     C1       CTL2    -0.800000E-01   12.0110           0
      2626 MEMB     21       DPPC     HA       HAL2     0.900000E-01   1.00800           0
      2627 MEMB     21       DPPC     HB       HAL2     0.900000E-01   1.00800           0
      2628 MEMB     21       DPPC     C2       CTL1     0.170000       12.0110           0
      2629 MEMB     21       DPPC     HS       HAL1     0.900000E-01   1.00800           0
      2630 MEMB     21       DPPC     O21      OSL     -0.490000       15.9994           0
      2631 MEMB     21       DPPC     C21      CL       0.900000       12.0110           0
      2632 MEMB     21       DPPC     O22      OBL     -0.630000       15.9994           0
      2633 MEMB     21       DPPC     C22      CTL2    -0.220000       12.0110           0
      2634 MEMB     21       DPPC     H2R      HAL2     0.900000E-01   1.00800           0
      2635 MEMB     21       DPPC     H2S      HAL2     0.900000E-01   1.00800           0
      2636 MEMB     21       DPPC     C3       CTL2     0.800000E-01   12.0110           0
      2637 MEMB     21       DPPC     HX       HAL2     0.900000E-01   1.00800           0
      2638 MEMB     21       DPPC     HY       HAL2     0.900000E-01   1.00800           0
      2639 MEMB     21       DPPC     O31      OSL     -0.490000       15.9994           0
      2640 MEMB     21       DPPC     C31      CL       0.900000       12.0110           0
      2641 MEMB     21       DPPC     O32      OBL     -0.630000       15.9994           0
      2642 MEMB     21       DPPC     C32      CTL2    -0.220000       12.0110           0
      2643 MEMB     21       DPPC     H2X      HAL2     0.900000E-01   1.00800           0
      2644 MEMB     21       DPPC     H2Y      HAL2     0.900000E-01   1.00800           0
      2645 MEMB     21       DPPC     C23      CTL2    -0.180000       12.0110           0
      2646 MEMB     21       DPPC     H3R      HAL2     0.900000E-01   1.00800           0
      2647 MEMB     21       DPPC     H3S      HAL2     0.900000E-01   1.00800           0
      2648 MEMB     21       DPPC     C24      CTL2    -0.180000       12.0110           0
      2649 MEMB     21       DPPC     H4R      HAL2     0.900000E-01   1.00800           0
      2650 MEMB     21       DPPC     H4S      HAL2     0.900000E-01   1.00800           0
      2651 MEMB     21       DPPC     C25      CTL2    -0.180000       12.0110           0
      2652 MEMB     21       DPPC     H5R      HAL2     0.900000E-01   1.00800           0
      2653 MEMB     21       DPPC     H5S      HAL2     0.900000E-01   1.00800           0
      2654 MEMB     21       DPPC     C26      CTL2    -0.180000       12.0110           0
      2655 MEMB     21       DPPC     H6R      HAL2     0.900000E-01   1.00800           0
      2656 MEMB     21       DPPC     H6S      HAL2     0.900000E-01   1.00800           0
      2657 MEMB     21       DPPC     C27      CTL2    -0.180000       12.0110           0
      2658 MEMB     21       DPPC     H7R      HAL2     0.900000E-01   1.00800           0
      2659 MEMB     21       DPPC     H7S      HAL2     0.900000E-01   1.00800           0
      2660 MEMB     21       DPPC     C28      CTL2    -0.180000       12.0110           0
      2661 MEMB     21       DPPC     H8R      HAL2     0.900000E-01   1.00800           0
      2662 MEMB     21       DPPC     H8S      HAL2     0.900000E-01   1.00800           0
      2663 MEMB     21       DPPC     C29      CTL2    -0.180000       12.0110           0
      2664 MEMB     21       DPPC     H9R      HAL2     0.900000E-01   1.00800           0
      2665 MEMB     21       DPPC     H9S      HAL2     0.900000E-01   1.00800           0
      2666 MEMB     21       DPPC     C210     CTL2    -0.180000       12.0110           0
      2667 MEMB     21       DPPC     H10R     HAL2     0.900000E-01   1.00800           0
      2668 MEMB     21       DPPC     H10S     HAL2     0.900000E-01   1.00800           0
      2669 MEMB     21       DPPC     C211     CTL2    -0.180000       12.0110           0
      2670 MEMB     21       DPPC     H11R     HAL2     0.900000E-01   1.00800           0
      2671 MEMB     21       DPPC     H11S     HAL2     0.900000E-01   1.00800           0
      2672 MEMB     21       DPPC     C212     CTL2    -0.180000       12.0110           0
      2673 MEMB     21       DPPC     H12R     HAL2     0.900000E-01   1.00800           0
      2674 MEMB     21       DPPC     H12S     HAL2     0.900000E-01   1.00800           0
      2675 MEMB     21       DPPC     C213     CTL2    -0.180000       12.0110           0
      2676 MEMB     21       DPPC     H13R     HAL2     0.900000E-01   1.00800           0
      2677 MEMB     21       DPPC     H13S     HAL2     0.900000E-01   1.00800           0
      2678 MEMB     21       DPPC     C214     CTL2    -0.180000       12.0110           0
      2679 MEMB     21       DPPC     H14R     HAL2     0.900000E-01   1.00800           0
      2680 MEMB     21       DPPC     H14S     HAL2     0.900000E-01   1.00800           0
      2681 MEMB     21       DPPC     C215     CTL2    -0.180000       12.0110           0
      2682 MEMB     21       DPPC     H15R     HAL2     0.900000E-01   1.00800           0
      2683 MEMB     21       DPPC     H15S     HAL2     0.900000E-01   1.00800           0
      2684 MEMB     21       DPPC     C216     CTL3    -0.270000       12.0110           0
      2685 MEMB     21       DPPC     H16R     HAL3     0.900000E-01   1.00800           0
      2686 MEMB     21       DPPC     H16S     HAL3     0.900000E-01   1.00800           0
      2687 MEMB     21       DPPC     H16T     HAL3     0.900000E-01   1.00800           0
      2688 MEMB     21       DPPC     C33      CTL2    -0.180000       12.0110           0
      2689 MEMB     21       DPPC     H3X      HAL2     0.900000E-01   1.00800           0
      2690 MEMB     21       DPPC     H3Y      HAL2     0.900000E-01   1.00800           0
      2691 MEMB     21       DPPC     C34      CTL2    -0.180000       12.0110           0
      2692 MEMB     21       DPPC     H4X      HAL2     0.900000E-01   1.00800           0
      2693 MEMB     21       DPPC     H4Y      HAL2     0.900000E-01   1.00800           0
      2694 MEMB     21       DPPC     C35      CTL2    -0.180000       12.0110           0
      2695 MEMB     21       DPPC     H5X      HAL2     0.900000E-01   1.00800           0
      2696 MEMB     21       DPPC     H5Y      HAL2     0.900000E-01   1.00800           0
      2697 MEMB     21       DPPC     C36      CTL2    -0.180000       12.0110           0
      2698 MEMB     21       DPPC     H6X      HAL2     0.900000E-01   1.00800           0
      2699 MEMB     21       DPPC     H6Y      HAL2     0.900000E-01   1.00800           0
      2700 MEMB     21       DPPC     C37      CTL2    -0.180000       12.0110           0
      2701 MEMB     21       DPPC     H7X      HAL2     0.900000E-01   1.00800           0
      2702 MEMB     21       DPPC     H7Y      HAL2     0.900000E-01   1.00800           0
      2703 MEMB     21       DPPC     C38      CTL2    -0.180000       12.0110           0
      2704 MEMB     21       DPPC     H8X      HAL2     0.900000E-01   1.00800           0
      2705 MEMB     21       DPPC     H8Y      HAL2     0.900000E-01   1.00800           0
      2706 MEMB     21       DPPC     C39      CTL2    -0.180000       12.0110           0
      2707 MEMB     21       DPPC     H9X      HAL2     0.900000E-01   1.00800           0
      2708 MEMB     21       DPPC     H9Y      HAL2     0.900000E-01   1.00800           0
      2709 MEMB     21       DPPC     C310     CTL2    -0.180000       12.0110           0
      2710 MEMB     21       DPPC     H10X     HAL2     0.900000E-01   1.00800           0
      2711 MEMB     21       DPPC     H10Y     HAL2     0.900000E-01   1.00800           0
      2712 MEMB     21       DPPC     C311     CTL2    -0.180000       12.0110           0
      2713 MEMB     21       DPPC     H11X     HAL2     0.900000E-01   1.00800           0
      2714 MEMB     21       DPPC     H11Y     HAL2     0.900000E-01   1.00800           0
      2715 MEMB     21       DPPC     C312     CTL2    -0.180000       12.0110           0
      2716 MEMB     21       DPPC     H12X     HAL2     0.900000E-01   1.00800           0
      2717 MEMB     21       DPPC     H12Y     HAL2     0.900000E-01   1.00800           0
      2718 MEMB     21       DPPC     C313     CTL2    -0.180000       12.0110           0
      2719 MEMB     21       DPPC     H13X     HAL2     0.900000E-01   1.00800           0
      2720 MEMB     21       DPPC     H13Y     HAL2     0.900000E-01   1.00800           0
      2721 MEMB     21       DPPC     C314     CTL2    -0.180000       12.0110           0
      2722 MEMB     21       DPPC     H14X     HAL2     0.900000E-01   1.00800           0
      2723 MEMB     21       DPPC     H14Y     HAL2     0.900000E-01   1.00800           0
      2724 MEMB     21       DPPC     C315     CTL2    -0.180000       12.0110           0
      2725 MEMB     21       DPPC     H15X     HAL2     0.900000E-01   1.00800           0
      2726 MEMB     21       DPPC     H15Y     HAL2     0.900000E-01   1.00800           0
      2727 MEMB     21       DPPC     C316     CTL3    -0.270000       12.0110           0
      2728 MEMB     21       DPPC     H16X     HAL3     0.900000E-01   1.00800           0
      2729 MEMB     21       DPPC     H16Y     HAL3     0.900000E-01   1.00800           0
      2730 MEMB     21       DPPC     H16Z     HAL3     0.900000E-01   1.00800           0
      2731 MEMB     22       DPPC     N        NTL     -0.600000       14.0070           0
      2732 MEMB     22       DPPC     C13      CTL5    -0.350000       12.0110           0
      2733 MEMB     22       DPPC     H13A     HL       0.250000       1.00800           0
      2734 MEMB     22       DPPC     H13B     HL       0.250000       1.00800           0
      2735 MEMB     22       DPPC     H13C     HL       0.250000       1.00800           0
      2736 MEMB     22       DPPC     C14      CTL5    -0.350000       12.0110           0
      2737 MEMB     22       DPPC     H14A     HL       0.250000       1.00800           0
      2738 MEMB     22       DPPC     H14B     HL       0.250000       1.00800           0
      2739 MEMB     22       DPPC     H14C     HL       0.250000       1.00800           0
      2740 MEMB     22       DPPC     C15      CTL5    -0.350000       12.0110           0
      2741 MEMB     22       DPPC     H15A     HL       0.250000       1.00800           0
      2742 MEMB     22       DPPC     H15B     HL       0.250000       1.00800           0
      2743 MEMB     22       DPPC     H15C     HL       0.250000       1.00800           0
      2744 MEMB     22       DPPC     C12      CTL2    -0.100000       12.0110           0
      2745 MEMB     22       DPPC     H12A     HL       0.250000       1.00800           0
      2746 MEMB     22       DPPC     H12B     HL       0.250000       1.00800           0
      2747 MEMB     22       DPPC     C11      CTL2    -0.800000E-01   12.0110           0
      2748 MEMB     22       DPPC     H11A     HAL2     0.900000E-01   1.00800           0
      2749 MEMB     22       DPPC     H11B     HAL2     0.900000E-01   1.00800           0
      2750 MEMB     22       DPPC     P        PL       1.500000       30.9740           0
      2751 MEMB     22       DPPC     O13      O2L     -0.780000       15.9994           0
      2752 MEMB     22       DPPC     O14      O2L     -0.780000       15.9994           0
      2753 MEMB     22       DPPC     O11      OSLP    -0.570000       15.9994           0
      2754 MEMB     22       DPPC     O12      OSLP    -0.570000       15.9994           0
      2755 MEMB     22       DPPC     C1       CTL2    -0.800000E-01   12.0110           0
      2756 MEMB     22       DPPC     HA       HAL2     0.900000E-01   1.00800           0
      2757 MEMB     22       DPPC     HB       HAL2     0.900000E-01   1.00800           0
      2758 MEMB     22       DPPC     C2       CTL1     0.170000       12.0110           0
      2759 MEMB     22       DPPC     HS       HAL1     0.900000E-01   1.00800           0
      2760 MEMB     22       DPPC     O21      OSL     -0.490000       15.9994           0
      2761 MEMB     22       DPPC     C21      CL       0.900000       12.0110           0
      2762 MEMB     22       DPPC     O22      OBL     -0.630000       15.9994           0
      2763 MEMB     22       DPPC     C22      CTL2    -0.220000       12.0110           0
      2764 MEMB     22       DPPC     H2R      HAL2     0.900000E-01   1.00800           0
      2765 MEMB     22       DPPC     H2S      HAL2     0.900000E-01   1.00800           0
      2766 MEMB     22       DPPC     C3       CTL2     0.800000E-01   12.0110           0
      2767 MEMB     22       DPPC     HX       HAL2     0.900000E-01   1.00800           0
      2768 MEMB     22       DPPC     HY       HAL2     0.900000E-01   1.00800           0
      2769 MEMB     22       DPPC     O31      OSL     -0.490000       15.9994           0
      2770 MEMB     22       DPPC     C31      CL       0.900000       12.0110           0
      2771 MEMB     22       DPPC     O32      OBL     -0.630000       15.9994           0
      2772 MEMB     22       DPPC     C32      CTL2    -0.220000       12.0110           0
      2773 MEMB     22       DPPC     H2X      HAL2     0.900000E-01   1.00800           0
      2774 MEMB     22       DPPC     H2Y      HAL2     0.900000E-01   1.00800           0
      2775 MEMB     22       DPPC     C23      CTL2    -0.180000       12.0110           0
      2776 MEMB     22       DPPC     H3R      HAL2     0.900000E-01   1.00800           0
      2777 MEMB     22       DPPC     H3S      HAL2     0.900000E-01   1.00800           0
      2778 MEMB     22       DPPC     C24      CTL2    -0.180000       12.0110           0
      2779 MEMB     22       DPPC     H4R      HAL2     0.900000E-01   1.00800           0
      2780 MEMB     22       DPPC     H4S      HAL2     0.900000E-01   1.00800           0
      2781 MEMB     22       DPPC     C25      CTL2    -0.180000       12.0110           0
      2782 MEMB     22       DPPC     H5R      HAL2     0.900000E-01   1.00800           0
      2783 MEMB     22       DPPC     H5S      HAL2     0.900000E-01   1.00800           0
      2784 MEMB     22       DPPC     C26      CTL2    -0.180000       12.0110           0
      2785 MEMB     22       DPPC     H6R      HAL2     0.900000E-01   1.00800           0
      2786 MEMB     22       DPPC     H6S      HAL2     0.900000E-01   1.00800           0
      2787 MEMB     22       DPPC     C27      CTL2    -0.180000       12.0110           0
      2788 MEMB     22       DPPC     H7R      HAL2     0.900000E-01   1.00800           0
      2789 MEMB     22       DPPC     H7S      HAL2     0.900000E-01   1.00800           0
      2790 MEMB     22       DPPC     C28      CTL2    -0.180000       12.0110           0
      2791 MEMB     22       DPPC     H8R      HAL2     0.900000E-01   1.00800           0
      2792 MEMB     22       DPPC     H8S      HAL2     0.900000E-01   1.00800           0
      2793 MEMB     22       DPPC     C29      CTL2    -0.180000       12.0110           0
      2794 MEMB     22       DPPC     H9R      HAL2     0.900000E-01   1.00800           0
      2795 MEMB     22       DPPC     H9S      HAL2     0.900000E-01   1.00800           0
      2796 MEMB     22       DPPC     C210     CTL2    -0.180000       12.0110           0
      2797 MEMB     22       DPPC     H10R     HAL2     0.900000E-01   1.00800           0
      2798 MEMB     22       DPPC     H10S     HAL2     0.900000E-01   1.00800           0
      2799 MEMB     22       DPPC     C211     CTL2    -0.180000       12.0110           0
      2800 MEMB     22       DPPC     H11R     HAL2     0.900000E-01   1.00800           0
      2801 MEMB     22       DPPC     H11S     HAL2     0.900000E-01   1.00800           0
      2802 MEMB     22       DPPC     C212     CTL2    -0.180000       12.0110           0
      2803 MEMB     22       DPPC     H12R     HAL2     0.900000E-01   1.00800           0
      2804 MEMB     22       DPPC     H12S     HAL2     0.900000E-01   1.00800           0
      2805 MEMB     22       DPPC     C213     CTL2    -0.180000       12.0110           0
      2806 MEMB     22       DPPC     H13R     HAL2     0.900000E-01   1.00800           0
      2807 MEMB     22       DPPC     H13S     HAL2     0.900000E-01   1.00800           0
      2808 MEMB     22       DPPC     C214     CTL2    -0.180000       12.0110           0
      2809 MEMB     22       DPPC     H14R     HAL2     0.900000E-01   1.00800           0
      2810 MEMB     22       DPPC     H14S     HAL2     0.900000E-01   1.00800           0
      2811 MEMB     22       DPPC     C215     CTL2    -0.180000       12.0110           0
      2812 MEMB     22       DPPC     H15R     HAL2     0.900000E-01   1.00800           0
      2813 MEMB     22       DPPC     H15S     HAL2     0.900000E-01   1.00800           0
      2814 MEMB     22       DPPC     C216     CTL3    -0.270000       12.0110           0
      2815 MEMB     22       DPPC     H16R     HAL3     0.900000E-01   1.00800           0
      2816 MEMB     22       DPPC     H16S     HAL3     0.900000E-01   1.00800           0
      2817 MEMB     22       DPPC     H16T     HAL3     0.900000E-01   1.00800           0
      2818 MEMB     22       DPPC     C33      CTL2    -0.180000       12.0110           0
      2819 MEMB     22       DPPC     H3X      HAL2     0.900000E-01   1.00800           0
      2820 MEMB     22       DPPC     H3Y      HAL2     0.900000E-01   1.00800           0
      2821 MEMB     22       DPPC     C34      CTL2    -0.180000       12.0110           0
      2822 MEMB     22       DPPC     H4X      HAL2     0.900000E-01   1.00800           0
      2823 MEMB     22       DPPC     H4Y      HAL2     0.900000E-01   1.00800           0
      2824 MEMB     22       DPPC     C35      CTL2    -0.180000       12.0110           0
      2825 MEMB     22       DPPC     H5X      HAL2     0.900000E-01   1.00800           0
      2826 MEMB     22       DPPC     H5Y      HAL2     0.900000E-01   1.00800           0
      2827 MEMB     22       DPPC     C36      CTL2    -0.180000       12.0110           0
      2828 MEMB     22       DPPC     H6X      HAL2     0.900000E-01   1.00800           0
      2829 MEMB     22       DPPC     H6Y      HAL2     0.900000E-01   1.00800           0
      2830 MEMB     22       DPPC     C37      CTL2    -0.180000       12.0110           0
      2831 MEMB     22       DPPC     H7X      HAL2     0.900000E-01   1.00800           0
      2832 MEMB     22       DPPC     H7Y      HAL2     0.900000E-01   1.00800           0
      2833 MEMB     22       DPPC     C38      CTL2    -0.180000       12.0110           0
      2834 MEMB     22       DPPC     H8X      HAL2     0.900000E-01   1.00800           0
      2835 MEMB     22       DPPC     H8Y      HAL2     0.900000E-01   1.00800           0
      2836 MEMB     22       DPPC     C39      CTL2    -0.180000       12.0110           0
      2837 MEMB     22       DPPC     H9X      HAL2     0.900000E-01   1.00800           0
      2838 MEMB     22       DPPC     H9Y      HAL2     0.900000E-01   1.00800           0
      2839 MEMB     22       DPPC     C310     CTL2    -0.180000       12.0110           0
      2840 MEMB     22       DPPC     H10X     HAL2     0.900000E-01   1.00800           0
      2841 MEMB     22       DPPC     H10Y     HAL2     0.900000E-01   1.00800           0
      2842 MEMB     22       DPPC     C311     CTL2    -0.180000       12.0110           0
      2843 MEMB     22       DPPC     H11X     HAL2     0.900000E-01   1.00800           0
      2844 MEMB     22       DPPC     H11Y     HAL2     0.900000E-01   1.00800           0
      2845 MEMB     22       DPPC     C312     CTL2    -0.180000       12.0110           0
      2846 MEMB     22       DPPC     H12X     HAL2     0.900000E-01   1.00800           0
      2847 MEMB     22       DPPC     H12Y     HAL2     0.900000E-01   1.00800           0
      2848 MEMB     22       DPPC     C313     CTL2    -0.180000       12.0110           0
      2849 MEMB     22       DPPC     H13X     HAL2     0.900000E-01   1.00800           0
      2850 MEMB     22       DPPC     H13Y     HAL2     0.900000E-01   1.00800           0
      2851 MEMB     22       DPPC     C314     CTL2    -0.180000       12.0110           0
      2852 MEMB     22       DPPC     H14X     HAL2     0.900000E-01   1.00800           0
      2853 MEMB     22       DPPC     H14Y     HAL2     0.900000E-01   1.00800           0
      2854 MEMB     22       DPPC     C315     CTL2    -0.180000       12.0110           0
      2855 MEMB     22       DPPC     H15X     HAL2     0.900000E-01   1.00800           0
      2856 MEMB     22       DPPC     H15Y     HAL2     0.900000E-01   1.00800           0
      2857 MEMB     22       DPPC     C316     CTL3    -0.270000       12.0110           0
      2858 MEMB     22       DPPC     H16X     HAL3     0.900000E-01   1.00800           0
      2859 MEMB     22       DPPC     H16Y     HAL3     0.900000E-01   1.00800           0
      2860 MEMB     22       DPPC     H16Z     HAL3     0.900000E-01   1.00800           0
      2861 MEMB     23       DPPC     N        NTL     -0.600000       14.0070           0
      2862 MEMB     23       DPPC     C13      CTL5    -0.350000       12.0110           0
      2863 MEMB     23       DPPC     H13A     HL       0.250000       1.00800           0
      2864 MEMB     23       DPPC     H13B     HL       0.250000       1.00800           0
      2865 MEMB     23       DPPC     H13C     HL       0.250000       1.00800           0
      2866 MEMB     23       DPPC     C14      CTL5    -0.350000       12.0110           0
      2867 MEMB     23       DPPC     H14A     HL       0.250000       1.00800           0
      2868 MEMB     23       DPPC     H14B     HL       0.250000       1.00800           0
      2869 MEMB     23       DPPC     H14C     HL       0.250000       1.00800           0
      2870 MEMB     23       DPPC     C15      CTL5    -0.350000       12.0110           0
      2871 MEMB     23       DPPC     H15A     HL       0.250000       1.00800           0
      2872 MEMB     23       DPPC     H15B     HL       0.250000       1.00800           0
      2873 MEMB     23       DPPC     H15C     HL       0.250000       1.00800           0
      2874 MEMB     23       DPPC     C12      CTL2    -0.100000       12.0110           0
      2875 MEMB     23       DPPC     H12A     HL       0.250000       1.00800           0
      2876 MEMB     23       DPPC     H12B     HL       0.250000       1.00800           0
      2877 MEMB     23       DPPC     C11      CTL2    -0.800000E-01   12.0110           0
      2878 MEMB     23       DPPC     H11A     HAL2     0.900000E-01   1.00800           0
      2879 MEMB     23       DPPC     H11B     HAL2     0.900000E-01   1.00800           0
      2880 MEMB     23       DPPC     P        PL       1.500000       30.9740           0
      2881 MEMB     23       DPPC     O13      O2L     -0.780000       15.9994           0
      2882 MEMB     23       DPPC     O14      O2L     -0.780000       15.9994           0
      2883 MEMB     23       DPPC     O11      OSLP    -0.570000       15.9994           0
      2884 MEMB     23       DPPC     O12      OSLP    -0.570000       15.9994           0
      2885 MEMB     23       DPPC     C1       CTL2    -0.800000E-01   12.0110           0
      2886 MEMB     23       DPPC     HA       HAL2     0.900000E-01   1.00800           0
      2887 MEMB     23       DPPC     HB       HAL2     0.900000E-01   1.00800           0
      2888 MEMB     23       DPPC     C2       CTL1     0.170000       12.0110           0
      2889 MEMB     23       DPPC     HS       HAL1     0.900000E-01   1.00800           0
      2890 MEMB     23       DPPC     O21      OSL     -0.490000       15.9994           0
      2891 MEMB     23       DPPC     C21      CL       0.900000       12.0110           0
      2892 MEMB     23       DPPC     O22      OBL     -0.630000       15.9994           0
      2893 MEMB     23       DPPC     C22      CTL2    -0.220000       12.0110           0
      2894 MEMB     23       DPPC     H2R      HAL2     0.900000E-01   1.00800           0
      2895 MEMB     23       DPPC     H2S      HAL2     0.900000E-01   1.00800           0
      2896 MEMB     23       DPPC     C3       CTL2     0.800000E-01   12.0110           0
      2897 MEMB     23       DPPC     HX       HAL2     0.900000E-01   1.00800           0
      2898 MEMB     23       DPPC     HY       HAL2     0.900000E-01   1.00800           0
      2899 MEMB     23       DPPC     O31      OSL     -0.490000       15.9994           0
      2900 MEMB     23       DPPC     C31      CL       0.900000       12.0110           0
      2901 MEMB     23       DPPC     O32      OBL     -0.630000       15.9994           0
      2902 MEMB     23       DPPC     C32      CTL2    -0.220000       12.0110           0
      2903 MEMB     23       DPPC     H2X      HAL2     0.900000E-01   1.00800           0
      2904 MEMB     23       DPPC     H2Y      HAL2     0.900000E-01   1.00800           0
      2905 MEMB     23       DPPC     C23      CTL2    -0.180000       12.0110           0
      2906 MEMB     23       DPPC     H3R      HAL2     0.900000E-01   1.00800           0
      2907 MEMB     23       DPPC     H3S      HAL2     0.900000E-01   1.00800           0
      2908 MEMB     23       DPPC     C24      CTL2    -0.180000       12.0110           0
      2909 MEMB     23       DPPC     H4R      HAL2     0.900000E-01   1.00800           0
      2910 MEMB     23       DPPC     H4S      HAL2     0.900000E-01   1.00800           0
      2911 MEMB     23       DPPC     C25      CTL2    -0.180000       12.0110           0
      2912 MEMB     23       DPPC     H5R      HAL2     0.900000E-01   1.00800           0
      2913 MEMB     23       DPPC     H5S      HAL2     0.900000E-01   1.00800           0
      2914 MEMB     23       DPPC     C26      CTL2    -0.180000       12.0110           0
      2915 MEMB     23       DPPC     H6R      HAL2     0.900000E-01   1.00800           0
      2916 MEMB     23       DPPC     H6S      HAL2     0.900000E-01   1.00800           0
      2917 MEMB     23       DPPC     C27      CTL2    -0.180000       12.0110           0
      2918 MEMB     23       DPPC     H7R      HAL2     0.900000E-01   1.00800           0
      2919 MEMB     23       DPPC     H7S      HAL2     0.900000E-01   1.00800           0
      2920 MEMB     23       DPPC     C28      CTL2    -0.180000       12.0110           0
      2921 MEMB     23       DPPC     H8R      HAL2     0.900000E-01   1.00800           0
      2922 MEMB     23       DPPC     H8S      HAL2     0.900000E-01   1.00800           0
      2923 MEMB     23       DPPC     C29      CTL2    -0.180000       12.0110           0
      2924 MEMB     23       DPPC     H9R      HAL2     0.900000E-01   1.00800           0
      2925 MEMB     23       DPPC     H9S      HAL2     0.900000E-01   1.00800           0
      2926 MEMB     23       DPPC     C210     CTL2    -0.180000       12.0110           0
      2927 MEMB     23       DPPC     H10R     HAL2     0.900000E-01   1.00800           0
      2928 MEMB     23       DPPC     H10S     HAL2     0.900000E-01   1.00800           0
      2929 MEMB     23       DPPC     C211     CTL2    -0.180000       12.0110           0
      2930 MEMB     23       DPPC     H11R     HAL2     0.900000E-01   1.00800           0
      2931 MEMB     23       DPPC     H11S     HAL2     0.900000E-01   1.00800           0
      2932 MEMB     23       DPPC     C212     CTL2    -0.180000       12.0110           0
      2933 MEMB     23       DPPC     H12R     HAL2     0.900000E-01   1.00800           0
      2934 MEMB     23       DPPC     H12S     HAL2     0.900000E-01   1.00800           0
      2935 MEMB     23       DPPC     C213     CTL2    -0.180000       12.0110           0
      2936 MEMB     23       DPPC     H13R     HAL2     0.900000E-01   1.00800           0
      2937 MEMB     23       DPPC     H13S     HAL2     0.900000E-01   1.00800           0
      2938 MEMB     23       DPPC     C214     CTL2    -0.180000       12.0110           0
      2939 MEMB     23       DPPC     H14R     HAL2     0.900000E-01   1.00800           0
      2940 MEMB     23       DPPC     H14S     HAL2     0.900000E-01   1.00800           0
      2941 MEMB     23       DPPC     C215     CTL2    -0.180000       12.0110           0
      2942 MEMB     23       DPPC     H15R     HAL2     0.900000E-01   1.00800           0
      2943 MEMB     23       DPPC     H15S     HAL2     0.900000E-01   1.00800           0
      2944 MEMB     23       DPPC     C216     CTL3    -0.270000       12.0110           0
      2945 MEMB     23       DPPC     H16R     HAL3     0.900000E-01   1.00800           0
      2946 MEMB     23       DPPC     H16S     HAL3     0.900000E-01   1.00800           0
      2947 MEMB     23       DPPC     H16T     HAL3     0.900000E-01   1.00800           0
      2948 MEMB     23       DPPC     C33      CTL2    -0.180000       12.0110           0
      2949 MEMB     23       DPPC     H3X      HAL2     0.900000E-01   1.00800           0
      2950 MEMB     23       DPPC     H3Y      HAL2     0.900000E-01   1.00800           0
      2951 MEMB     23       DPPC     C34      CTL2    -0.180000       12.0110           0
      2952 MEMB     23       DPPC     H4X      HAL2     0.900000E-01   1.00800           0
      2953 MEMB     23       DPPC     H4Y      HAL2     0.900000E-01   1.00800           0
      2954 MEMB     23       DPPC     C35      CTL2    -0.180000       12.0110           0
      2955 MEMB     23       DPPC     H5X      HAL2     0.900000E-01   1.00800           0
      2956 MEMB     23       DPPC     H5Y      HAL2     0.900000E-01   1.00800           0
      2957 MEMB     23       DPPC     C36      CTL2    -0.180000       12.0110           0
      2958 MEMB     23       DPPC     H6X      HAL2     0.900000E-01   1.00800           0
      2959 MEMB     23       DPPC     H6Y      HAL2     0.900000E-01   1.00800           0
      2960 MEMB     23       DPPC     C37      CTL2    -0.180000       12.0110           0
      2961 MEMB     23       DPPC     H7X      HAL2     0.900000E-01   1.00800           0
      2962 MEMB     23       DPPC     H7Y      HAL2     0.900000E-01   1.00800           0
      2963 MEMB     23       DPPC     C38      CTL2    -0.180000       12.0110           0
      2964 MEMB     23       DPPC     H8X      HAL2     0.900000E-01   1.00800           0
      2965 MEMB     23       DPPC     H8Y      HAL2     0.900000E-01   1.00800           0
      2966 MEMB     23       DPPC     C39      CTL2    -0.180000       12.0110           0
      2967 MEMB     23       DPPC     H9X      HAL2     0.900000E-01   1.00800           0
      2968 MEMB     23       DPPC     H9Y      HAL2     0.900000E-01   1.00800           0
      2969 MEMB     23       DPPC     C310     CTL2    -0.180000       12.0110           0
      2970 MEMB     23       DPPC     H10X     HAL2     0.900000E-01   1.00800           0
      2971 MEMB     23       DPPC     H10Y     HAL2     0.900000E-01   1.00800           0
      2972 MEMB     23       DPPC     C311     CTL2    -0.180000       12.0110           0
      2973 MEMB     23       DPPC     H11X     HAL2     0.900000E-01   1.00800           0
      2974 MEMB     23       DPPC     H11Y     HAL2     0.900000E-01   1.00800           0
      2975 MEMB     23       DPPC     C312     CTL2    -0.180000       12.0110           0
      2976 MEMB     23       DPPC     H12X     HAL2     0.900000E-01   1.00800           0
      2977 MEMB     23       DPPC     H12Y     HAL2     0.900000E-01   1.00800           0
      2978 MEMB     23       DPPC     C313     CTL2    -0.180000       12.0110           0
      2979 MEMB     23       DPPC     H13X     HAL2     0.900000E-01   1.00800           0
      2980 MEMB     23       DPPC     H13Y     HAL2     0.900000E-01   1.00800           0
      2981 MEMB     23       DPPC     C314     CTL2    -0.180000       12.0110           0
      2982 MEMB     23       DPPC     H14X     HAL2     0.900000E-01   1.00800           0
      2983 MEMB     23       DPPC     H14Y     HAL2     0.900000E-01   1.00800           0
      2984 MEMB     23       DPPC     C315     CTL2    -0.180000       12.0110           0
      2985 MEMB     23       DPPC     H15X     HAL2     0.900000E-01   1.00800           0
      2986 MEMB     23       DPPC     H15Y     HAL2     0.900000E-01   1.00800           0
      2987 MEMB     23       DPPC     C316     CTL3    -0.270000       12.0110           0
      2988 MEMB     23       DPPC     H16X     HAL3     0.900000E-01   1.00800           0
      2989 MEMB     23       DPPC     H16Y     HAL3     0.900000E-01   1.00800           0
      2990 MEMB     23       DPPC     H16Z     HAL3     0.900000E-01   1.00800           0
      2991 MEMB     24       DPPC     N        NTL     -0.600000       14.0070           0
      2992 MEMB     24       DPPC     C13      CTL5    -0.350000       12.0110           0
      2993 MEMB     24       DPPC     H13A     HL       0.250000       1.00800           0
      2994 MEMB     24       DPPC     H13B     HL       0.250000       1.00800           0
      2995 MEMB     24       DPPC     H13C     HL       0.250000       1.00800           0
      2996 MEMB     24       DPPC     C14      CTL5    -0.350000       12.0110           0
      2997 MEMB     24       DPPC     H14A     HL       0.250000       1.00800           0
      2998 MEMB     24       DPPC     H14B     HL       0.250000       1.00800           0
      2999 MEMB     24       DPPC     H14C     HL       0.250000       1.00800           0
      3000 MEMB     24       DPPC     C15      CTL5    -0.350000       12.0110           0
      3001 MEMB     24       DPPC     H15A     HL       0.250000       1.00800           0
      3002 MEMB     24       DPPC     H15B     HL       0.250000       1.00800           0
      3003 MEMB     24       DPPC     H15C     HL       0.250000       1.00800           0
      3004 MEMB     24       DPPC     C12      CTL2    -0.100000       12.0110           0
      3005 MEMB     24       DPPC     H12A     HL       0.250000       1.00800           0
      3006 MEMB     24       DPPC     H12B     HL       0.250000       1.00800           0
      3007 MEMB     24       DPPC     C11      CTL2    -0.800000E-01   12.0110           0
      3008 MEMB     24       DPPC     H11A     HAL2     0.900000E-01   1.00800           0
      3009 MEMB     24       DPPC     H11B     HAL2     0.900000E-01   1.00800           0
      3010 MEMB     24       DPPC     P        PL       1.500000       30.9740           0
      3011 MEMB     24       DPPC     O13      O2L     -0.780000       15.9994           0
      3012 MEMB     24       DPPC     O14      O2L     -0.780000       15.9994           0
      3013 MEMB     24       DPPC     O11      OSLP    -0.570000       15.9994           0
      3014 MEMB     24       DPPC     O12      OSLP    -0.570000       15.9994           0
      3015 MEMB     24       DPPC     C1       CTL2    -0.800000E-01   12.0110           0
      3016 MEMB     24       DPPC     HA       HAL2     0.900000E-01   1.00800           0
      3017 MEMB     24       DPPC     HB       HAL2     0.900000E-01   1.00800           0
      3018 MEMB     24       DPPC     C2       CTL1     0.170000       12.0110           0
      3019 MEMB     24       DPPC     HS       HAL1     0.900000E-01   1.00800           0
      3020 MEMB     24       DPPC     O21      OSL     -0.490000       15.9994           0
      3021 MEMB     24       DPPC     C21      CL       0.900000       12.0110           0
      3022 MEMB     24       DPPC     O22      OBL     -0.630000       15.9994           0
      3023 MEMB     24       DPPC     C22      CTL2    -0.220000       12.0110           0
      3024 MEMB     24       DPPC     H2R      HAL2     0.900000E-01   1.00800           0
      3025 MEMB     24       DPPC     H2S      HAL2     0.900000E-01   1.00800           0
      3026 MEMB     24       DPPC     C3       CTL2     0.800000E-01   12.0110           0
      3027 MEMB     24       DPPC     HX       HAL2     0.900000E-01   1.00800           0
      3028 MEMB     24       DPPC     HY       HAL2     0.900000E-01   1.00800           0
      3029 MEMB     24       DPPC     O31      OSL     -0.490000       15.9994           0
      3030 MEMB     24       DPPC     C31      CL       0.900000       12.0110           0
      3031 MEMB     24       DPPC     O32      OBL     -0.630000       15.9994           0
      3032 MEMB     24       DPPC     C32      CTL2    -0.220000       12.0110           0
      3033 MEMB     24       DPPC     H2X      HAL2     0.900000E-01   1.00800           0
      3034 MEMB     24       DPPC     H2Y      HAL2     0.900000E-01   1.00800           0
      3035 MEMB     24       DPPC     C23      CTL2    -0.180000       12.0110           0
      3036 MEMB     24       DPPC     H3R      HAL2     0.900000E-01   1.00800           0
      3037 MEMB     24       DPPC     H3S      HAL2     0.900000E-01   1.00800           0
      3038 MEMB     24       DPPC     C24      CTL2    -0.180000       12.0110           0
      3039 MEMB     24       DPPC     H4R      HAL2     0.900000E-01   1.00800           0
      3040 MEMB     24       DPPC     H4S      HAL2     0.900000E-01   1.00800           0
      3041 MEMB     24       DPPC     C25      CTL2    -0.180000       12.0110           0
      3042 MEMB     24       DPPC     H5R      HAL2     0.900000E-01   1.00800           0
      3043 MEMB     24       DPPC     H5S      HAL2     0.900000E-01   1.00800           0
      3044 MEMB     24       DPPC     C26      CTL2    -0.180000       12.0110           0
      3045 MEMB     24       DPPC     H6R      HAL2     0.900000E-01   1.00800           0
      3046 MEMB     24       DPPC     H6S      HAL2     0.900000E-01   1.00800           0
      3047 MEMB     24       DPPC     C27      CTL2    -0.180000       12.0110           0
      3048 MEMB     24       DPPC     H7R      HAL2     0.900000E-01   1.00800           0
      3049 MEMB     24       DPPC     H7S      HAL2     0.900000E-01   1.00800           0
      3050 MEMB     24       DPPC     C28      CTL2    -0.180000       12.0110           0
      3051 MEMB     24       DPPC     H8R      HAL2     0.900000E-01   1.00800           0
      3052 MEMB     24       DPPC     H8S      HAL2     0.900000E-01   1.00800           0
      3053 MEMB     24       DPPC     C29      CTL2    -0.180000       12.0110           0
      3054 MEMB     24       DPPC     H9R      HAL2     0.900000E-01   1.00800           0
      3055 MEMB     24       DPPC     H9S      HAL2     0.900000E-01   1.00800           0
      3056 MEMB     24       DPPC     C210     CTL2    -0.180000       12.0110           0
      3057 MEMB     24       DPPC     H10R     HAL2     0.900000E-01   1.00800           0
      3058 MEMB     24       DPPC     H10S     HAL2     0.900000E-01   1.00800           0
      3059 MEMB     24       DPPC     C211     CTL2    -0.180000       12.0110           0
      3060 MEMB     24       DPPC     H11R     HAL2     0.900000E-01   1.00800           0
      3061 MEMB     24       DPPC     H11S     HAL2     0.900000E-01   1.00800           0
      3062 MEMB     24       DPPC     C212     CTL2    -0.180000       12.0110           0
      3063 MEMB     24       DPPC     H12R     HAL2     0.900000E-01   1.00800           0
      3064 MEMB     24       DPPC     H12S     HAL2     0.900000E-01   1.00800           0
      3065 MEMB     24       DPPC     C213     CTL2    -0.180000       12.0110           0
      3066 MEMB     24       DPPC     H13R     HAL2     0.900000E-01   1.00800           0
      3067 MEMB     24       DPPC     H13S     HAL2     0.900000E-01   1.00800           0
      3068 MEMB     24       DPPC     C214     CTL2    -0.180000       12.0110           0
      3069 MEMB     24       DPPC     H14R     HAL2     0.900000E-01   1.00800           0
      3070 MEMB     24       DPPC     H14S     HAL2     0.900000E-01   1.00800           0
      3071 MEMB     24       DPPC     C215     CTL2    -0.180000       12.0110           0
      3072 MEMB     24       DPPC     H15R     HAL2     0.900000E-01   1.00800           0
      3073 MEMB     24       DPPC     H15S     HAL2     0.900000E-01   1.00800           0
      3074 MEMB     24       DPPC     C216     CTL3    -0.270000       12.0110           0
      3075 MEMB     24       DPPC     H16R     HAL3     0.900000E-01   1.00800           0
      3076 MEMB     24       DPPC     H16S     HAL3     0.900000E-01   1.00800           0
      3077 MEMB     24       DPPC     H16T     HAL3     0.900000E-01   1.00800           0
      3078 MEMB     24       DPPC     C33      CTL2    -0.180000       12.0110           0
      3079 MEMB     24       DPPC     H3X      HAL2     0.900000E-01   1.00800           0
      3080 MEMB     24       DPPC     H3Y      HAL2     0.900000E-01   1.00800           0
      3081 MEMB     24       DPPC     C34      CTL2    -0.180000       12.0110           0
      3082 MEMB     24       DPPC     H4X      HAL2     0.900000E-01   1.00800           0
      3083 MEMB     24       DPPC     H4Y      HAL2     0.900000E-01   1.00800           0
      3084 MEMB     24       DPPC     C35      CTL2    -0.180000       12.0110           0
      3085 MEMB     24       DPPC     H5X      HAL2     0.900000E-01   1.00800           0
      3086 MEMB     24       DPPC     H5Y      HAL2     0.900000E-01   1.00800           0
      3087 MEMB     24       DPPC     C36      CTL2    -0.180000       12.0110           0
      3088 MEMB     24       DPPC     H6X      HAL2     0.900000E-01   1.00800           0
      3089 MEMB     24       DPPC     H6Y      HAL2     0.900000E-01   1.00800           0
      3090 MEMB     24       DPPC     C37      CTL2    -0.180000       12.0110           0
      3091 MEMB     24       DPPC     H7X      HAL2     0.900000E-01   1.00800           0
      3092 MEMB     24       DPPC     H7Y      HAL2     0.900000E-01   1.00800           0
      3093 MEMB     24       DPPC     C38      CTL2    -0.180000       12.0110           0
      3094 MEMB     24       DPPC     H8X      HAL2     0.900000E-01   1.00800           0
      3095 MEMB     24       DPPC     H8Y      HAL2     0.900000E-01   1.00800           0
      3096 MEMB     24       DPPC     C39      CTL2    -0.180000       12.0110           0
      3097 MEMB     24       DPPC     H9X      HAL2     0.900000E-01   1.00800           0
      3098 MEMB     24       DPPC     H9Y      HAL2     0.900000E-01   1.00800           0
      3099 MEMB     24       DPPC     C310     CTL2    -0.180000       12.0110           0
      3100 MEMB     24       DPPC     H10X     HAL2     0.900000E-01   1.00800           0
      3101 MEMB     24       DPPC     H10Y     HAL2     0.900000E-01   1.00800           0
      3102 MEMB     24       DPPC     C311     CTL2    -0.180000       12.0110           0
      3103 MEMB     24       DPPC     H11X     HAL2     0.900000E-01   1.00800           0
      3104 MEMB     24       DPPC     H11Y     HAL2     0.900000E-01   1.00800           0
      3105 MEMB     24       DPPC     C312     CTL2    -0.180000       12.0110           0
      3106 MEMB     24       DPPC     H12X     HAL2     0.900000E-01   1.00800           0
      3107 MEMB     24       DPPC     H12Y     HAL2     0.900000E-01   1.00800           0
      3108 MEMB     24       DPPC     C313     CTL2    -0.180000       12.0110           0
      3109 MEMB     24       DPPC     H13X     HAL2     0.900000E-01   1.00800           0
      3110 MEMB     24       DPPC     H13Y     HAL2     0.900000E-01   1.00800           0
      3111 MEMB     24       DPPC     C314     CTL2    -0.180000       12.0110           0
      3112 MEMB     24       DPPC     H14X     HAL2     0.900000E-01   1.00800           0
      3113 MEMB     24       DPPC     H14Y     HAL2     0.900000E-01   1.00800           0
      3114 MEMB     24       DPPC     C315     CTL2    -0.180000       12.0110           0
      3115 MEMB     24       DPPC     H15X     HAL2     0.900000E-01   1.00800           0
      3116 MEMB     24       DPPC     H15Y     HAL2     0.900000E-01   1.00800           0
      3117 MEMB     24       DPPC     C316     CTL3    -0.270000       12.0110           0
      3118 MEMB     24       DPPC     H16X     HAL3     0.900000E-01   1.00800           0
      3119 MEMB     24       DPPC     H16Y     HAL3     0.900000E-01   1.00800           0
      3120 MEMB     24       DPPC     H16Z     HAL3     0.900000E-01   1.00800           0
      3121 MEMB     25       DPPC     N        NTL     -0.600000       14.0070           0
      3122 MEMB     25       DPPC     C13      CTL5    -0.350000       12.0110           0
      3123 MEMB     25       DPPC     H13A     HL       0.250000       1.00800           0
      3124 MEMB     25       DPPC     H13B     HL       0.250000       1.00800           0
      3125 MEMB     25       DPPC     H13C     HL       0.250000       1.00800           0
      3126 MEMB     25       DPPC     C14      CTL5    -0.350000       12.0110           0
      3127 MEMB     25       DPPC     H14A     HL       0.250000       1.00800           0
      3128 MEMB     25       DPPC     H14B     HL       0.250000       1.00800           0
      3129 MEMB     25       DPPC     H14C     HL       0.250000       1.00800           0
      3130 MEMB     25       DPPC     C15      CTL5    -0.350000       12.0110           0
      3131 MEMB     25       DPPC     H15A     HL       0.250000       1.00800           0
      3132 MEMB     25       DPPC     H15B     HL       0.250000       1.00800           0
      3133 MEMB     25       DPPC     H15C     HL       0.250000       1.00800           0
      3134 MEMB     25       DPPC     C12      CTL2    -0.100000       12.0110           0
      3135 MEMB     25       DPPC     H12A     HL       0.250000       1.00800           0
      3136 MEMB     25       DPPC     H12B     HL       0.250000       1.00800           0
      3137 MEMB     25       DPPC     C11      CTL2    -0.800000E-01   12.0110           0
      3138 MEMB     25       DPPC     H11A     HAL2     0.900000E-01   1.00800           0
      3139 MEMB     25       DPPC     H11B     HAL2     0.900000E-01   1.00800           0
      3140 MEMB     25       DPPC     P        PL       1.500000       30.9740           0
      3141 MEMB     25       DPPC     O13      O2L     -0.780000       15.9994           0
      3142 MEMB     25       DPPC     O14      O2L     -0.780000       15.9994           0
      3143 MEMB     25       DPPC     O11      OSLP    -0.570000       15.9994           0
      3144 MEMB     25       DPPC     O12      OSLP    -0.570000       15.9994           0
      3145 MEMB     25       DPPC     C1       CTL2    -0.800000E-01   12.0110           0
      3146 MEMB     25       DPPC     HA       HAL2     0.900000E-01   1.00800           0
      3147 MEMB     25       DPPC     HB       HAL2     0.900000E-01   1.00800           0
      3148 MEMB     25       DPPC     C2       CTL1     0.170000       12.0110           0
      3149 MEMB     25       DPPC     HS       HAL1     0.900000E-01   1.00800           0
      3150 MEMB     25       DPPC     O21      OSL     -0.490000       15.9994           0
      3151 MEMB     25       DPPC     C21      CL       0.900000       12.0110           0
      3152 MEMB     25       DPPC     O22      OBL     -0.630000       15.9994           0
      3153 MEMB     25       DPPC     C22      CTL2    -0.220000       12.0110           0
      3154 MEMB     25       DPPC     H2R      HAL2     0.900000E-01   1.00800           0
      3155 MEMB     25       DPPC     H2S      HAL2     0.900000E-01   1.00800           0
      3156 MEMB     25       DPPC     C3       CTL2     0.800000E-01   12.0110           0
      3157 MEMB     25       DPPC     HX       HAL2     0.900000E-01   1.00800           0
      3158 MEMB     25       DPPC     HY       HAL2     0.900000E-01   1.00800           0
      3159 MEMB     25       DPPC     O31      OSL     -0.490000       15.9994           0
      3160 MEMB     25       DPPC     C31      CL       0.900000       12.0110           0
      3161 MEMB     25       DPPC     O32      OBL     -0.630000       15.9994           0
      3162 MEMB     25       DPPC     C32      CTL2    -0.220000       12.0110           0
      3163 MEMB     25       DPPC     H2X      HAL2     0.900000E-01   1.00800           0
      3164 MEMB     25       DPPC     H2Y      HAL2     0.900000E-01   1.00800           0
      3165 MEMB     25       DPPC     C23      CTL2    -0.180000       12.0110           0
      3166 MEMB     25       DPPC     H3R      HAL2     0.900000E-01   1.00800           0
      3167 MEMB     25       DPPC     H3S      HAL2     0.900000E-01   1.00800           0
      3168 MEMB     25       DPPC     C24      CTL2    -0.180000       12.0110           0
      3169 MEMB     25       DPPC     H4R      HAL2     0.900000E-01   1.00800           0
      3170 MEMB     25       DPPC     H4S      HAL2     0.900000E-01   1.00800           0
      3171 MEMB     25       DPPC     C25      CTL2    -0.180000       12.0110           0
      3172 MEMB     25       DPPC     H5R      HAL2     0.900000E-01   1.00800           0
      3173 MEMB     25       DPPC     H5S      HAL2     0.900000E-01   1.00800           0
      3174 MEMB     25       DPPC     C26      CTL2    -0.180000       12.0110           0
      3175 MEMB     25       DPPC     H6R      HAL2     0.900000E-01   1.00800           0
      3176 MEMB     25       DPPC     H6S      HAL2     0.900000E-01   1.00800           0
      3177 MEMB     25       DPPC     C27      CTL2    -0.180000       12.0110           0
      3178 MEMB     25       DPPC     H7R      HAL2     0.900000E-01   1.00800           0
      3179 MEMB     25       DPPC     H7S      HAL2     0.900000E-01   1.00800           0
      3180 MEMB     25       DPPC     C28      CTL2    -0.180000       12.0110           0
      3181 MEMB     25       DPPC     H8R      HAL2     0.900000E-01   1.00800           0
      3182 MEMB     25       DPPC     H8S      HAL2     0.900000E-01   1.00800           0
      3183 MEMB     25       DPPC     C29      CTL2    -0.180000       12.0110           0
      3184 MEMB     25       DPPC     H9R      HAL2     0.900000E-01   1.00800           0
      3185 MEMB     25       DPPC     H9S      HAL2     0.900000E-01   1.00800           0
      3186 MEMB     25       DPPC     C210     CTL2    -0.180000       12.0110           0
      3187 MEMB     25       DPPC     H10R     HAL2     0.900000E-01   1.00800           0
      3188 MEMB     25       DPPC     H10S     HAL2     0.900000E-01   1.00800           0
      3189 MEMB     25       DPPC     C211     CTL2    -0.180000       12.0110           0
      3190 MEMB     25       DPPC     H11R     HAL2     0.900000E-01   1.00800           0
      3191 MEMB     25       DPPC     H11S     HAL2     0.900000E-01   1.00800           0
      3192 MEMB     25       DPPC     C212     CTL2    -0.180000       12.0110           0
      3193 MEMB     25       DPPC     H12R     HAL2     0.900000E-01   1.00800           0
      3194 MEMB     25       DPPC     H12S     HAL2     0.900000E-01   1.00800           0
      3195 MEMB     25       DPPC     C213     CTL2    -0.180000       12.0110           0
      3196 MEMB     25       DPPC     H13R     HAL2     0.900000E-01   1.00800           0
      3197 MEMB     25       DPPC     H13S     HAL2     0.900000E-01   1.00800           0
      3198 MEMB     25       DPPC     C214     CTL2    -0.180000       12.0110           0
      3199 MEMB     25       DPPC     H14R     HAL2     0.900000E-01   1.00800           0
      3200 MEMB     25       DPPC     H14S     HAL2     0.900000E-01   1.00800           0
      3201 MEMB     25       DPPC     C215     CTL2    -0.180000       12.0110           0
      3202 MEMB     25       DPPC     H15R     HAL2     0.900000E-01   1.00800           0
      3203 MEMB     25       DPPC     H15S     HAL2     0.900000E-01   1.00800           0
      3204 MEMB     25       DPPC     C216     CTL3    -0.270000       12.0110           0
      3205 MEMB     25       DPPC     H16R     HAL3     0.900000E-01   1.00800           0
      3206 MEMB     25       DPPC     H16S     HAL3     0.900000E-01   1.00800           0
      3207 MEMB     25       DPPC     H16T     HAL3     0.900000E-01   1.00800           0
      3208 MEMB     25       DPPC     C33      CTL2    -0.180000       12.0110           0
      3209 MEMB     25       DPPC     H3X      HAL2     0.900000E-01   1.00800           0
      3210 MEMB     25       DPPC     H3Y      HAL2     0.900000E-01   1.00800           0
      3211 MEMB     25       DPPC     C34      CTL2    -0.180000       12.0110           0
      3212 MEMB     25       DPPC     H4X      HAL2     0.900000E-01   1.00800           0
      3213 MEMB     25       DPPC     H4Y      HAL2     0.900000E-01   1.00800           0
      3214 MEMB     25       DPPC     C35      CTL2    -0.180000       12.0110           0
      3215 MEMB     25       DPPC     H5X      HAL2     0.900000E-01   1.00800           0
      3216 MEMB     25       DPPC     H5Y      HAL2     0.900000E-01   1.00800           0
      3217 MEMB     25       DPPC     C36      CTL2    -0.180000       12.0110           0
      3218 MEMB     25       DPPC     H6X      HAL2     0.900000E-01   1.00800           0
      3219 MEMB     25       DPPC     H6Y      HAL2     0.900000E-01   1.00800           0
      3220 MEMB     25       DPPC     C37      CTL2    -0.180000       12.0110           0
      3221 MEMB     25       DPPC     H7X      HAL2     0.900000E-01   1.00800           0
      3222 MEMB     25       DPPC     H7Y      HAL2     0.900000E-01   1.00800           0
      3223 MEMB     25       DPPC     C38      CTL2    -0.180000       12.0110           0
      3224 MEMB     25       DPPC     H8X      HAL2     0.900000E-01   1.00800           0
      3225 MEMB     25       DPPC     H8Y      HAL2     0.900000E-01   1.00800           0
      3226 MEMB     25       DPPC     C39      CTL2    -0.180000       12.0110           0
      3227 MEMB     25       DPPC     H9X      HAL2     0.900000E-01   1.00800           0
      3228 MEMB     25       DPPC     H9Y      HAL2     0.900000E-01   1.00800           0
      3229 MEMB     25       DPPC     C310     CTL2    -0.180000       12.0110           0
      3230 MEMB     25       DPPC     H10X     HAL2     0.900000E-01   1.00800           0
      3231 MEMB     25       DPPC     H10Y     HAL2     0.900000E-01   1.00800           0
      3232 MEMB     25       DPPC     C311     CTL2    -0.180000       12.0110           0
      3233 MEMB     25       DPPC     H11X     HAL2     0.900000E-01   1.00800           0
      3234 MEMB     25       DPPC     H11Y     HAL2     0.900000E-01   1.00800           0
      3235 MEMB     25       DPPC     C312     CTL2    -0.180000       12.0110           0
      3236 MEMB     25       DPPC     H12X     HAL2     0.900000E-01   1.00800           0
      3237 MEMB     25       DPPC     H12Y     HAL2     0.900000E-01   1.00800           0
      3238 MEMB     25       DPPC     C313     CTL2    -0.180000       12.0110           0
      3239 MEMB     25       DPPC     H13X     HAL2     0.900000E-01   1.00800           0
      3240 MEMB     25       DPPC     H13Y     HAL2     0.900000E-01   1.00800           0
      3241 MEMB     25       DPPC     C314     CTL2    -0.180000       12.0110           0
      3242 MEMB     25       DPPC     H14X     HAL2     0.900000E-01   1.00800           0
      3243 MEMB     25       DPPC     H14Y     HAL2     0.900000E-01   1.00800           0
      3244 MEMB     25       DPPC     C315     CTL2    -0.180000       12.0110           0
      3245 MEMB     25       DPPC     H15X     HAL2     0.900000E-01   1.00800           0
      3246 MEMB     25       DPPC     H15Y     HAL2     0.900000E-01   1.00800           0
      3247 MEMB     25       DPPC     C316     CTL3    -0.270000       12.0110           0
      3248 MEMB     25       DPPC     H16X     HAL3     0.900000E-01   1.00800           0
      3249 MEMB     25       DPPC     H16Y     HAL3     0.900000E-01   1.00800           0
      3250 MEMB     25       DPPC     H16Z     HAL3     0.900000E-01   1.00800           0
      3251 MEMB     26       DPPC     N        NTL     -0.600000       14.0070           0
      3252 MEMB     26       DPPC     C13      CTL5    -0.350000       12.0110           0
      3253 MEMB     26       DPPC     H13A     HL       0.250000       1.00800           0
      3254 MEMB     26       DPPC     H13B     HL       0.250000       1.00800           0
      3255 MEMB     26       DPPC     H13C     HL       0.250000       1.00800           0
      3256 MEMB     26       DPPC     C14      CTL5    -0.350000       12.0110           0
      3257 MEMB     26       DPPC     H14A     HL       0.250000       1.00800           0
      3258 MEMB     26       DPPC     H14B     HL       0.250000       1.00800           0
      3259 MEMB     26       DPPC     H14C     HL       0.250000       1.00800           0
      3260 MEMB     26       DPPC     C15      CTL5    -0.350000       12.0110           0
      3261 MEMB     26       DPPC     H15A     HL       0.250000       1.00800           0
      3262 MEMB     26       DPPC     H15B     HL       0.250000       1.00800           0
      3263 MEMB     26       DPPC     H15C     HL       0.250000       1.00800           0
      3264 MEMB     26       DPPC     C12      CTL2    -0.100000       12.0110           0
      3265 MEMB     26       DPPC     H12A     HL       0.250000       1.00800           0
      3266 MEMB     26       DPPC     H12B     HL       0.250000       1.00800           0
      3267 MEMB     26       DPPC     C11      CTL2    -0.800000E-01   12.0110           0
      3268 MEMB     26       DPPC     H11A     HAL2     0.900000E-01   1.00800           0
      3269 MEMB     26       DPPC     H11B     HAL2     0.900000E-01   1.00800           0
      3270 MEMB     26       DPPC     P        PL       1.500000       30.9740           0
      3271 MEMB     26       DPPC     O13      O2L     -0.780000       15.9994           0
      3272 MEMB     26       DPPC     O14      O2L     -0.780000       15.9994           0
      3273 MEMB     26       DPPC     O11      OSLP    -0.570000       15.9994           0
      3274 MEMB     26       DPPC     O12      OSLP    -0.570000       15.9994           0
      3275 MEMB     26       DPPC     C1       CTL2    -0.800000E-01   12.0110           0
      3276 MEMB     26       DPPC     HA       HAL2     0.900000E-01   1.00800           0
      3277 MEMB     26       DPPC     HB       HAL2     0.900000E-01   1.00800           0
      3278 MEMB     26       DPPC     C2       CTL1     0.170000       12.0110           0
      3279 MEMB     26       DPPC     HS       HAL1     0.900000E-01   1.00800           0
      3280 MEMB     26       DPPC     O21      OSL     -0.490000       15.9994           0
      3281 MEMB     26       DPPC     C21      CL       0.900000       12.0110           0
      3282 MEMB     26       DPPC     O22      OBL     -0.630000       15.9994           0
      3283 MEMB     26       DPPC     C22      CTL2    -0.220000       12.0110           0
      3284 MEMB     26       DPPC     H2R      HAL2     0.900000E-01   1.00800           0
      3285 MEMB     26       DPPC     H2S      HAL2     0.900000E-01   1.00800           0
      3286 MEMB     26       DPPC     C3       CTL2     0.800000E-01   12.0110           0
      3287 MEMB     26       DPPC     HX       HAL2     0.900000E-01   1.00800           0
      3288 MEMB     26       DPPC     HY       HAL2     0.900000E-01   1.00800           0
      3289 MEMB     26       DPPC     O31      OSL     -0.490000       15.9994           0
      3290 MEMB     26       DPPC     C31      CL       0.900000       12.0110           0
      3291 MEMB     26       DPPC     O32      OBL     -0.630000       15.9994           0
      3292 MEMB     26       DPPC     C32      CTL2    -0.220000       12.0110           0
      3293 MEMB     26       DPPC     H2X      HAL2     0.900000E-01   1.00800           0
      3294 MEMB     26       DPPC     H2Y      HAL2     0.900000E-01   1.00800           0
      3295 MEMB     26       DPPC     C23      CTL2    -0.180000       12.0110           0
      3296 MEMB     26       DPPC     H3R      HAL2     0.900000E-01   1.00800           0
      3297 MEMB     26       DPPC     H3S      HAL2     0.900000E-01   1.00800           0
      3298 MEMB     26       DPPC     C24      CTL2    -0.180000       12.0110           0
      3299 MEMB     26       DPPC     H4R      HAL2     0.900000E-01   1.00800           0
      3300 MEMB     26       DPPC     H4S      HAL2     0.900000E-01   1.00800           0
      3301 MEMB     26       DPPC     C25      CTL2    -0.180000       12.0110           0
      3302 MEMB     26       DPPC     H5R      HAL2     0.900000E-01   1.00800           0
      3303 MEMB     26       DPPC     H5S      HAL2     0.900000E-01   1.00800           0
      3304 MEMB     26       DPPC     C26      CTL2    -0.180000       12.0110           0
      3305 MEMB     26       DPPC     H6R      HAL2     0.900000E-01   1.00800           0
      3306 MEMB     26       DPPC     H6S      HAL2     0.900000E-01   1.00800           0
      3307 MEMB     26       DPPC     C27      CTL2    -0.180000       12.0110           0
      3308 MEMB     26       DPPC     H7R      HAL2     0.900000E-01   1.00800           0
      3309 MEMB     26       DPPC     H7S      HAL2     0.900000E-01   1.00800           0
      3310 MEMB     26       DPPC     C28      CTL2    -0.180000       12.0110           0
      3311 MEMB     26       DPPC     H8R      HAL2     0.900000E-01   1.00800           0
      3312 MEMB     26       DPPC     H8S      HAL2     0.900000E-01   1.00800           0
      3313 MEMB     26       DPPC     C29      CTL2    -0.180000       12.0110           0
      3314 MEMB     26       DPPC     H9R      HAL2     0.900000E-01   1.00800           0
      3315 MEMB     26       DPPC     H9S      HAL2     0.900000E-01   1.00800           0
      3316 MEMB     26       DPPC     C210     CTL2    -0.180000       12.0110           0
      3317 MEMB     26       DPPC     H10R     HAL2     0.900000E-01   1.00800           0
      3318 MEMB     26       DPPC     H10S     HAL2     0.900000E-01   1.00800           0
      3319 MEMB     26       DPPC     C211     CTL2    -0.180000       12.0110           0
      3320 MEMB     26       DPPC     H11R     HAL2     0.900000E-01   1.00800           0
      3321 MEMB     26       DPPC     H11S     HAL2     0.900000E-01   1.00800           0
      3322 MEMB     26       DPPC     C212     CTL2    -0.180000       12.0110           0
      3323 MEMB     26       DPPC     H12R     HAL2     0.900000E-01   1.00800           0
      3324 MEMB     26       DPPC     H12S     HAL2     0.900000E-01   1.00800           0
      3325 MEMB     26       DPPC     C213     CTL2    -0.180000       12.0110           0
      3326 MEMB     26       DPPC     H13R     HAL2     0.900000E-01   1.00800           0
      3327 MEMB     26       DPPC     H13S     HAL2     0.900000E-01   1.00800           0
      3328 MEMB     26       DPPC     C214     CTL2    -0.180000       12.0110           0
      3329 MEMB     26       DPPC     H14R     HAL2     0.900000E-01   1.00800           0
      3330 MEMB     26       DPPC     H14S     HAL2     0.900000E-01   1.00800           0
      3331 MEMB     26       DPPC     C215     CTL2    -0.180000       12.0110           0
      3332 MEMB     26       DPPC     H15R     HAL2     0.900000E-01   1.00800           0
      3333 MEMB     26       DPPC     H15S     HAL2     0.900000E-01   1.00800           0
      3334 MEMB     26       DPPC     C216     CTL3    -0.270000       12.0110           0
      3335 MEMB     26       DPPC     H16R     HAL3     0.900000E-01   1.00800           0
      3336 MEMB     26       DPPC     H16S     HAL3     0.900000E-01   1.00800           0
      3337 MEMB     26       DPPC     H16T     HAL3     0.900000E-01   1.00800           0
      3338 MEMB     26       DPPC     C33      CTL2    -0.180000       12.0110           0
      3339 MEMB     26       DPPC     H3X      HAL2     0.900000E-01   1.00800           0
      3340 MEMB     26       DPPC     H3Y      HAL2     0.900000E-01   1.00800           0
      3341 MEMB     26       DPPC     C34      CTL2    -0.180000       12.0110           0
      3342 MEMB     26       DPPC     H4X      HAL2     0.900000E-01   1.00800           0
      3343 MEMB     26       DPPC     H4Y      HAL2     0.900000E-01   1.00800           0
      3344 MEMB     26       DPPC     C35      CTL2    -0.180000       12.0110           0
      3345 MEMB     26       DPPC     H5X      HAL2     0.900000E-01   1.00800           0
      3346 MEMB     26       DPPC     H5Y      HAL2     0.900000E-01   1.00800           0
      3347 MEMB     26       DPPC     C36      CTL2    -0.180000       12.0110           0
      3348 MEMB     26       DPPC     H6X      HAL2     0.900000E-01   1.00800           0
      3349 MEMB     26       DPPC     H6Y      HAL2     0.900000E-01   1.00800           0
      3350 MEMB     26       DPPC     C37      CTL2    -0.180000       12.0110           0
      3351 MEMB     26       DPPC     H7X      HAL2     0.900000E-01   1.00800           0
      3352 MEMB     26       DPPC     H7Y      HAL2     0.900000E-01   1.00800           0
      3353 MEMB     26       DPPC     C38      CTL2    -0.180000       12.0110           0
      3354 MEMB     26       DPPC     H8X      HAL2     0.900000E-01   1.00800           0
      3355 MEMB     26       DPPC     H8Y      HAL2     0.900000E-01   1.00800           0
      3356 MEMB     26       DPPC     C39      CTL2    -0.180000       12.0110           0
      3357 MEMB     26       DPPC     H9X      HAL2     0.900000E-01   1.00800           0
      3358 MEMB     26       DPPC     H9Y      HAL2     0.900000E-01   1.00800           0
      3359 MEMB     26       DPPC     C310     CTL2    -0.180000       12.0110           0
      3360 MEMB     26       DPPC     H10X     HAL2     0.900000E-01   1.00800           0
      3361 MEMB     26       DPPC     H10Y     HAL2     0.900000E-01   1.00800           0
      3362 MEMB     26       DPPC     C311     CTL2    -0.180000       12.0110           0
      3363 MEMB     26       DPPC     H11X     HAL2     0.900000E-01   1.00800           0
      3364 MEMB     26       DPPC     H11Y     HAL2     0.900000E-01   1.00800           0
      3365 MEMB     26       DPPC     C312     CTL2    -0.180000       12.0110           0
      3366 MEMB     26       DPPC     H12X     HAL2     0.900000E-01   1.00800           0
      3367 MEMB     26       DPPC     H12Y     HAL2     0.900000E-01   1.00800           0
      3368 MEMB     26       DPPC     C313     CTL2    -0.180000       12.0110           0
      3369 MEMB     26       DPPC     H13X     HAL2     0.900000E-01   1.00800           0
      3370 MEMB     26       DPPC     H13Y     HAL2     0.900000E-01   1.00800           0
      3371 MEMB     26       DPPC     C314     CTL2    -0.180000       12.0110           0
      3372 MEMB     26       DPPC     H14X     HAL2     0.900000E-01   1.00800           0
      3373 MEMB     26       DPPC     H14Y     HAL2     0.900000E-01   1.00800           0
      3374 MEMB     26       DPPC     C315     CTL2    -0.180000       12.0110           0
      3375 MEMB     26       DPPC     H15X     HAL2     0.900000E-01   1.00800           0
      3376 MEMB     26       DPPC     H15Y     HAL2     0.900000E-01   1.00800           0
      3377 MEMB     26       DPPC     C316     CTL3    -0.270000       12.0110           0
      3378 MEMB     26       DPPC     H16X     HAL3     0.900000E-01   1.00800           0
      3379 MEMB     26       DPPC     H16Y     HAL3     0.900000E-01   1.00800           0
      3380 MEMB     26       DPPC     H16Z     HAL3     0.900000E-01   1.00800           0
      3381 MEMB     27       DPPC     N        NTL     -0.600000       14.0070           0
      3382 MEMB     27       DPPC     C13      CTL5    -0.350000       12.0110           0
      3383 MEMB     27       DPPC     H13A     HL       0.250000       1.00800           0
      3384 MEMB     27       DPPC     H13B     HL       0.250000       1.00800           0
      3385 MEMB     27       DPPC     H13C     HL       0.250000       1.00800           0
      3386 MEMB     27       DPPC     C14      CTL5    -0.350000       12.0110           0
      3387 MEMB     27       DPPC     H14A     HL       0.250000       1.00800           0
      3388 MEMB     27       DPPC     H14B     HL       0.250000       1.00800           0
      3389 MEMB     27       DPPC     H14C     HL       0.250000       1.00800           0
      3390 MEMB     27       DPPC     C15      CTL5    -0.350000       12.0110           0
      3391 MEMB     27       DPPC     H15A     HL       0.250000       1.00800           0
      3392 MEMB     27       DPPC     H15B     HL       0.250000       1.00800           0
      3393 MEMB     27       DPPC     H15C     HL       0.250000       1.00800           0
      3394 MEMB     27       DPPC     C12      CTL2    -0.100000       12.0110           0
      3395 MEMB     27       DPPC     H12A     HL       0.250000       1.00800           0
      3396 MEMB     27       DPPC     H12B     HL       0.250000       1.00800           0
      3397 MEMB     27       DPPC     C11      CTL2    -0.800000E-01   12.0110           0
      3398 MEMB     27       DPPC     H11A     HAL2     0.900000E-01   1.00800           0
      3399 MEMB     27       DPPC     H11B     HAL2     0.900000E-01   1.00800           0
      3400 MEMB     27       DPPC     P        PL       1.500000       30.9740           0
      3401 MEMB     27       DPPC     O13      O2L     -0.780000       15.9994           0
      3402 MEMB     27       DPPC     O14      O2L     -0.780000       15.9994           0
      3403 MEMB     27       DPPC     O11      OSLP    -0.570000       15.9994           0
      3404 MEMB     27       DPPC     O12      OSLP    -0.570000       15.9994           0
      3405 MEMB     27       DPPC     C1       CTL2    -0.800000E-01   12.0110           0
      3406 MEMB     27       DPPC     HA       HAL2     0.900000E-01   1.00800           0
      3407 MEMB     27       DPPC     HB       HAL2     0.900000E-01   1.00800           0
      3408 MEMB     27       DPPC     C2       CTL1     0.170000       12.0110           0
      3409 MEMB     27       DPPC     HS       HAL1     0.900000E-01   1.00800           0
      3410 MEMB     27       DPPC     O21      OSL     -0.490000       15.9994           0
      3411 MEMB     27       DPPC     C21      CL       0.900000       12.0110           0
      3412 MEMB     27       DPPC     O22      OBL     -0.630000       15.9994           0
      3413 MEMB     27       DPPC     C22      CTL2    -0.220000       12.0110           0
      3414 MEMB     27       DPPC     H2R      HAL2     0.900000E-01   1.00800           0
      3415 MEMB     27       DPPC     H2S      HAL2     0.900000E-01   1.00800           0
      3416 MEMB     27       DPPC     C3       CTL2     0.800000E-01   12.0110           0
      3417 MEMB     27       DPPC     HX       HAL2     0.900000E-01   1.00800           0
      3418 MEMB     27       DPPC     HY       HAL2     0.900000E-01   1.00800           0
      3419 MEMB     27       DPPC     O31      OSL     -0.490000       15.9994           0
      3420 MEMB     27       DPPC     C31      CL       0.900000       12.0110           0
      3421 MEMB     27       DPPC     O32      OBL     -0.630000       15.9994           0
      3422 MEMB     27       DPPC     C32      CTL2    -0.220000       12.0110           0
      3423 MEMB     27       DPPC     H2X      HAL2     0.900000E-01   1.00800           0
      3424 MEMB     27       DPPC     H2Y      HAL2     0.900000E-01   1.00800           0
      3425 MEMB     27       DPPC     C23      CTL2    -0.180000       12.0110           0
      3426 MEMB     27       DPPC     H3R      HAL2     0.900000E-01   1.00800           0
      3427 MEMB     27       DPPC     H3S      HAL2     0.900000E-01   1.00800           0
      3428 MEMB     27       DPPC     C24      CTL2    -0.180000       12.0110           0
      3429 MEMB     27       DPPC     H4R      HAL2     0.900000E-01   1.00800           0
      3430 MEMB     27       DPPC     H4S      HAL2     0.900000E-01   1.00800           0
      3431 MEMB     27       DPPC     C25      CTL2    -0.180000       12.0110           0
      3432 MEMB     27       DPPC     H5R      HAL2     0.900000E-01   1.00800           0
      3433 MEMB     27       DPPC     H5S      HAL2     0.900000E-01   1.00800           0
      3434 MEMB     27       DPPC     C26      CTL2    -0.180000       12.0110           0
      3435 MEMB     27       DPPC     H6R      HAL2     0.900000E-01   1.00800           0
      3436 MEMB     27       DPPC     H6S      HAL2     0.900000E-01   1.00800           0
      3437 MEMB     27       DPPC     C27      CTL2    -0.180000       12.0110           0
      3438 MEMB     27       DPPC     H7R      HAL2     0.900000E-01   1.00800           0
      3439 MEMB     27       DPPC     H7S      HAL2     0.900000E-01   1.00800           0
      3440 MEMB     27       DPPC     C28      CTL2    -0.180000       12.0110           0
      3441 MEMB     27       DPPC     H8R      HAL2     0.900000E-01   1.00800           0
      3442 MEMB     27       DPPC     H8S      HAL2     0.900000E-01   1.00800           0
      3443 MEMB     27       DPPC     C29      CTL2    -0.180000       12.0110           0
      3444 MEMB     27       DPPC     H9R      HAL2     0.900000E-01   1.00800           0
      3445 MEMB     27       DPPC     H9S      HAL2     0.900000E-01   1.00800           0
      3446 MEMB     27       DPPC     C210     CTL2    -0.180000       12.0110           0
      3447 MEMB     27       DPPC     H10R     HAL2     0.900000E-01   1.00800           0
      3448 MEMB     27       DPPC     H10S     HAL2     0.900000E-01   1.00800           0
      3449 MEMB     27       DPPC     C211     CTL2    -0.180000       12.0110           0
      3450 MEMB     27       DPPC     H11R     HAL2     0.900000E-01   1.00800           0
      3451 MEMB     27       DPPC     H11S     HAL2     0.900000E-01   1.00800           0
      3452 MEMB     27       DPPC     C212     CTL2    -0.180000       12.0110           0
      3453 MEMB     27       DPPC     H12R     HAL2     0.900000E-01   1.00800           0
      3454 MEMB     27       DPPC     H12S     HAL2     0.900000E-01   1.00800           0
      3455 MEMB     27       DPPC     C213     CTL2    -0.180000       12.0110           0
      3456 MEMB     27       DPPC     H13R     HAL2     0.900000E-01   1.00800           0
      3457 MEMB     27       DPPC     H13S     HAL2     0.900000E-01   1.00800           0
      3458 MEMB     27       DPPC     C214     CTL2    -0.180000       12.0110           0
      3459 MEMB     27       DPPC     H14R     HAL2     0.900000E-01   1.00800           0
      3460 MEMB     27       DPPC     H14S     HAL2     0.900000E-01   1.00800           0
      3461 MEMB     27       DPPC     C215     CTL2    -0.180000       12.0110           0
      3462 MEMB     27       DPPC     H15R     HAL2     0.900000E-01   1.00800           0
      3463 MEMB     27       DPPC     H15S     HAL2     0.900000E-01   1.00800           0
      3464 MEMB     27       DPPC     C216     CTL3    -0.270000       12.0110           0
      3465 MEMB     27       DPPC     H16R     HAL3     0.900000E-01   1.00800           0
      3466 MEMB     27       DPPC     H16S     HAL3     0.900000E-01   1.00800           0
      3467 MEMB     27       DPPC     H16T     HAL3     0.900000E-01   1.00800           0
      3468 MEMB     27       DPPC     C33      CTL2    -0.180000       12.0110           0
      3469 MEMB     27       DPPC     H3X      HAL2     0.900000E-01   1.00800           0
      3470 MEMB     27       DPPC     H3Y      HAL2     0.900000E-01   1.00800           0
      3471 MEMB     27       DPPC     C34      CTL2    -0.180000       12.0110           0
      3472 MEMB     27       DPPC     H4X      HAL2     0.900000E-01   1.00800           0
      3473 MEMB     27       DPPC     H4Y      HAL2     0.900000E-01   1.00800           0
      3474 MEMB     27       DPPC     C35      CTL2    -0.180000       12.0110           0
      3475 MEMB     27       DPPC     H5X      HAL2     0.900000E-01   1.00800           0
      3476 MEMB     27       DPPC     H5Y      HAL2     0.900000E-01   1.00800           0
      3477 MEMB     27       DPPC     C36      CTL2    -0.180000       12.0110           0
      3478 MEMB     27       DPPC     H6X      HAL2     0.900000E-01   1.00800           0
      3479 MEMB     27       DPPC     H6Y      HAL2     0.900000E-01   1.00800           0
      3480 MEMB     27       DPPC     C37      CTL2    -0.180000       12.0110           0
      3481 MEMB     27       DPPC     H7X      HAL2     0.900000E-01   1.00800           0
      3482 MEMB     27       DPPC     H7Y      HAL2     0.900000E-01   1.00800           0
      3483 MEMB     27       DPPC     C38      CTL2    -0.180000       12.0110           0
      3484 MEMB     27       DPPC     H8X      HAL2     0.900000E-01   1.00800           0
      3485 MEMB     27       DPPC     H8Y      HAL2     0.900000E-01   1.00800           0
      3486 MEMB     27       DPPC     C39      CTL2    -0.180000       12.0110           0
      3487 MEMB     27       DPPC     H9X      HAL2     0.900000E-01   1.00800           0
      3488 MEMB     27       DPPC     H9Y      HAL2     0.900000E-01   1.00800           0
      3489 MEMB     27       DPPC     C310     CTL2    -0.180000       12.0110           0
      3490 MEMB     27       DPPC     H10X     HAL2     0.900000E-01   1.00800           0
      3491 MEMB     27       DPPC     H10Y     HAL2     0.900000E-01   1.00800           0
      3492 MEMB     27       DPPC     C311     CTL2    -0.180000       12.0110           0
      3493 MEMB     27       DPPC     H11X     HAL2     0.900000E-01   1.00800           0
      3494 MEMB     27       DPPC     H11Y     HAL2     0.900000E-01   1.00800           0
      3495 MEMB     27       DPPC     C312     CTL2    -0.180000       12.0110           0
      3496 MEMB     27       DPPC     H12X     HAL2     0.900000E-01   1.00800           0
      3497 MEMB     27       DPPC     H12Y     HAL2     0.900000E-01   1.00800           0
      3498 MEMB     27       DPPC     C313     CTL2    -0.180000       12.0110           0
      3499 MEMB     27       DPPC     H13X     HAL2     0.900000E-01   1.00800           0
      3500 MEMB     27       DPPC     H13Y     HAL2     0.900000E-01   1.00800           0
      3501 MEMB     27       DPPC     C314     CTL2    -0.180000       12.0110           0
      3502 MEMB     27       DPPC     H14X     HAL2     0.900000E-01   1.00800           0
      3503 MEMB     27       DPPC     H14Y     HAL2     0.900000E-01   1.00800           0
      3504 MEMB     27       DPPC     C315     CTL2    -0.180000       12.0110           0
      3505 MEMB     27       DPPC     H15X     HAL2     0.900000E-01   1.00800           0
      3506 MEMB     27       DPPC     H15Y     HAL2     0.900000E-01   1.00800           0
      3507 MEMB     27       DPPC     C316     CTL3    -0.270000       12.0110           0
      3508 MEMB     27       DPPC     H16X     HAL3     0.900000E-01   1.00800           0
      3509 MEMB     27       DPPC     H16Y     HAL3     0.900000E-01   1.00800           0
      3510 MEMB     27       DPPC     H16Z     HAL3     0.900000E-01   1.00800           0
      3511 MEMB     28       DPPC     N        NTL     -0.600000       14.0070           0
      3512 MEMB     28       DPPC     C13      CTL5    -0.350000       12.0110           0
      3513 MEMB     28       DPPC     H13A     HL       0.250000       1.00800           0
      3514 MEMB     28       DPPC     H13B     HL       0.250000       1.00800           0
      3515 MEMB     28       DPPC     H13C     HL       0.250000       1.00800           0
      3516 MEMB     28       DPPC     C14      CTL5    -0.350000       12.0110           0
      3517 MEMB     28       DPPC     H14A     HL       0.250000       1.00800           0
      3518 MEMB     28       DPPC     H14B     HL       0.250000       1.00800           0
      3519 MEMB     28       DPPC     H14C     HL       0.250000       1.00800           0
      3520 MEMB     28       DPPC     C15      CTL5    -0.350000       12.0110           0
      3521 MEMB     28       DPPC     H15A     HL       0.250000       1.00800           0
      3522 MEMB     28       DPPC     H15B     HL       0.250000       1.00800           0
      3523 MEMB     28       DPPC     H15C     HL       0.250000       1.00800           0
      3524 MEMB     28       DPPC     C12      CTL2    -0.100000       12.0110           0
      3525 MEMB     28       DPPC     H12A     HL       0.250000       1.00800           0
      3526 MEMB     28       DPPC     H12B     HL       0.250000       1.00800           0
      3527 MEMB     28       DPPC     C11      CTL2    -0.800000E-01   12.0110           0
      3528 MEMB     28       DPPC     H11A     HAL2     0.900000E-01   1.00800           0
      3529 MEMB     28       DPPC     H11B     HAL2     0.900000E-01   1.00800           0
      3530 MEMB     28       DPPC     P        PL       1.500000       30.9740           0
      3531 MEMB     28       DPPC     O13      O2L     -0.780000       15.9994           0
      3532 MEMB     28       DPPC     O14      O2L     -0.780000       15.9994           0
      3533 MEMB     28       DPPC     O11      OSLP    -0.570000       15.9994           0
      3534 MEMB     28       DPPC     O12      OSLP    -0.570000       15.9994           0
      3535 MEMB     28       DPPC     C1       CTL2    -0.800000E-01   12.0110           0
      3536 MEMB     28       DPPC     HA       HAL2     0.900000E-01   1.00800           0
      3537 MEMB     28       DPPC     HB       HAL2     0.900000E-01   1.00800           0
      3538 MEMB     28       DPPC     C2       CTL1     0.170000       12.0110           0
      3539 MEMB     28       DPPC     HS       HAL1     0.900000E-01   1.00800           0
      3540 MEMB     28       DPPC     O21      OSL     -0.490000       15.9994           0
      3541 MEMB     28       DPPC     C21      CL       0.900000       12.0110           0
      3542 MEMB     28       DPPC     O22      OBL     -0.630000       15.9994           0
      3543 MEMB     28       DPPC     C22      CTL2    -0.220000       12.0110           0
      3544 MEMB     28       DPPC     H2R      HAL2     0.900000E-01   1.00800           0
      3545 MEMB     28       DPPC     H2S      HAL2     0.900000E-01   1.00800           0
      3546 MEMB     28       DPPC     C3       CTL2     0.800000E-01   12.0110           0
      3547 MEMB     28       DPPC     HX       HAL2     0.900000E-01   1.00800           0
      3548 MEMB     28       DPPC     HY       HAL2     0.900000E-01   1.00800           0
      3549 MEMB     28       DPPC     O31      OSL     -0.490000       15.9994           0
      3550 MEMB     28       DPPC     C31      CL       0.900000       12.0110           0
      3551 MEMB     28       DPPC     O32      OBL     -0.630000       15.9994           0
      3552 MEMB     28       DPPC     C32      CTL2    -0.220000       12.0110           0
      3553 MEMB     28       DPPC     H2X      HAL2     0.900000E-01   1.00800           0
      3554 MEMB     28       DPPC     H2Y      HAL2     0.900000E-01   1.00800           0
      3555 MEMB     28       DPPC     C23      CTL2    -0.180000       12.0110           0
      3556 MEMB     28       DPPC     H3R      HAL2     0.900000E-01   1.00800           0
      3557 MEMB     28       DPPC     H3S      HAL2     0.900000E-01   1.00800           0
      3558 MEMB     28       DPPC     C24      CTL2    -0.180000       12.0110           0
      3559 MEMB     28       DPPC     H4R      HAL2     0.900000E-01   1.00800           0
      3560 MEMB     28       DPPC     H4S      HAL2     0.900000E-01   1.00800           0
      3561 MEMB     28       DPPC     C25      CTL2    -0.180000       12.0110           0
      3562 MEMB     28       DPPC     H5R      HAL2     0.900000E-01   1.00800           0
      3563 MEMB     28       DPPC     H5S      HAL2     0.900000E-01   1.00800           0
      3564 MEMB     28       DPPC     C26      CTL2    -0.180000       12.0110           0
      3565 MEMB     28       DPPC     H6R      HAL2     0.900000E-01   1.00800           0
      3566 MEMB     28       DPPC     H6S      HAL2     0.900000E-01   1.00800           0
      3567 MEMB     28       DPPC     C27      CTL2    -0.180000       12.0110           0
      3568 MEMB     28       DPPC     H7R      HAL2     0.900000E-01   1.00800           0
      3569 MEMB     28       DPPC     H7S      HAL2     0.900000E-01   1.00800           0
      3570 MEMB     28       DPPC     C28      CTL2    -0.180000       12.0110           0
      3571 MEMB     28       DPPC     H8R      HAL2     0.900000E-01   1.00800           0
      3572 MEMB     28       DPPC     H8S      HAL2     0.900000E-01   1.00800           0
      3573 MEMB     28       DPPC     C29      CTL2    -0.180000       12.0110           0
      3574 MEMB     28       DPPC     H9R      HAL2     0.900000E-01   1.00800           0
      3575 MEMB     28       DPPC     H9S      HAL2     0.900000E-01   1.00800           0
      3576 MEMB     28       DPPC     C210     CTL2    -0.180000       12.0110           0
      3577 MEMB     28       DPPC     H10R     HAL2     0.900000E-01   1.00800           0
      3578 MEMB     28       DPPC     H10S     HAL2     0.900000E-01   1.00800           0
      3579 MEMB     28       DPPC     C211     CTL2    -0.180000       12.0110           0
      3580 MEMB     28       DPPC     H11R     HAL2     0.900000E-01   1.00800           0
      3581 MEMB     28       DPPC     H11S     HAL2     0.900000E-01   1.00800           0
      3582 MEMB     28       DPPC     C212     CTL2    -0.180000       12.0110           0
      3583 MEMB     28       DPPC     H12R     HAL2     0.900000E-01   1.00800           0
      3584 MEMB     28       DPPC     H12S     HAL2     0.900000E-01   1.00800           0
      3585 MEMB     28       DPPC     C213     CTL2    -0.180000       12.0110           0
      3586 MEMB     28       DPPC     H13R     HAL2     0.900000E-01   1.00800           0
      3587 MEMB     28       DPPC     H13S     HAL2     0.900000E-01   1.00800           0
      3588 MEMB     28       DPPC     C214     CTL2    -0.180000       12.0110           0
      3589 MEMB     28       DPPC     H14R     HAL2     0.900000E-01   1.00800           0
      3590 MEMB     28       DPPC     H14S     HAL2     0.900000E-01   1.00800           0
      3591 MEMB     28       DPPC     C215     CTL2    -0.180000       12.0110           0
      3592 MEMB     28       DPPC     H15R     HAL2     0.900000E-01   1.00800           0
      3593 MEMB     28       DPPC     H15S     HAL2     0.900000E-01   1.00800           0
      3594 MEMB     28       DPPC     C216     CTL3    -0.270000       12.0110           0
      3595 MEMB     28       DPPC     H16R     HAL3     0.900000E-01   1.00800           0
      3596 MEMB     28       DPPC     H16S     HAL3     0.900000E-01   1.00800           0
      3597 MEMB     28       DPPC     H16T     HAL3     0.900000E-01   1.00800           0
      3598 MEMB     28       DPPC     C33      CTL2    -0.180000       12.0110           0
      3599 MEMB     28       DPPC     H3X      HAL2     0.900000E-01   1.00800           0
      3600 MEMB     28       DPPC     H3Y      HAL2     0.900000E-01   1.00800           0
      3601 MEMB     28       DPPC     C34      CTL2    -0.180000       12.0110           0
      3602 MEMB     28       DPPC     H4X      HAL2     0.900000E-01   1.00800           0
      3603 MEMB     28       DPPC     H4Y      HAL2     0.900000E-01   1.00800           0
      3604 MEMB     28       DPPC     C35      CTL2    -0.180000       12.0110           0
      3605 MEMB     28       DPPC     H5X      HAL2     0.900000E-01   1.00800           0
      3606 MEMB     28       DPPC     H5Y      HAL2     0.900000E-01   1.00800           0
      3607 MEMB     28       DPPC     C36      CTL2    -0.180000       12.0110           0
      3608 MEMB     28       DPPC     H6X      HAL2     0.900000E-01   1.00800           0
      3609 MEMB     28       DPPC     H6Y      HAL2     0.900000E-01   1.00800           0
      3610 MEMB     28       DPPC     C37      CTL2    -0.180000       12.0110           0
      3611 MEMB     28       DPPC     H7X      HAL2     0.900000E-01   1.00800           0
      3612 MEMB     28       DPPC     H7Y      HAL2     0.900000E-01   1.00800           0
      3613 MEMB     28       DPPC     C38      CTL2    -0.180000       12.0110           0
      3614 MEMB     28       DPPC     H8X      HAL2     0.900000E-01   1.00800           0
      3615 MEMB     28       DPPC     H8Y      HAL2     0.900000E-01   1.00800           0
      3616 MEMB     28       DPPC     C39      CTL2    -0.180000       12.0110           0
      3617 MEMB     28       DPPC     H9X      HAL2     0.900000E-01   1.00800           0
      3618 MEMB     28       DPPC     H9Y      HAL2     0.900000E-01   1.00800           0
      3619 MEMB     28       DPPC     C310     CTL2    -0.180000       12.0110           0
      3620 MEMB     28       DPPC     H10X     HAL2     0.900000E-01   1.00800           0
      3621 MEMB     28       DPPC     H10Y     HAL2     0.900000E-01   1.00800           0
      3622 MEMB     28       DPPC     C311     CTL2    -0.180000       12.0110           0
      3623 MEMB     28       DPPC     H11X     HAL2     0.900000E-01   1.00800           0
      3624 MEMB     28       DPPC     H11Y     HAL2     0.900000E-01   1.00800           0
      3625 MEMB     28       DPPC     C312     CTL2    -0.180000       12.0110           0
      3626 MEMB     28       DPPC     H12X     HAL2     0.900000E-01   1.00800           0
      3627 MEMB     28       DPPC     H12Y     HAL2     0.900000E-01   1.00800           0
      3628 MEMB     28       DPPC     C313     CTL2    -0.180000       12.0110           0
      3629 MEMB     28       DPPC     H13X     HAL2     0.900000E-01   1.00800           0
      3630 MEMB     28       DPPC     H13Y     HAL2     0.900000E-01   1.00800           0
      3631 MEMB     28       DPPC     C314     CTL2    -0.180000       12.0110           0
      3632 MEMB     28       DPPC     H14X     HAL2     0.900000E-01   1.00800           0
      3633 MEMB     28       DPPC     H14Y     HAL2     0.900000E-01   1.00800           0
      3634 MEMB     28       DPPC     C315     CTL2    -0.180000       12.0110           0
      3635 MEMB     28       DPPC     H15X     HAL2     0.900000E-01   1.00800           0
      3636 MEMB     28       DPPC     H15Y     HAL2     0.900000E-01   1.00800           0
      3637 MEMB     28       DPPC     C316     CTL3    -0.270000       12.0110           0
      3638 MEMB     28       DPPC     H16X     HAL3     0.900000E-01   1.00800           0
      3639 MEMB     28       DPPC     H16Y     HAL3     0.900000E-01   1.00800           0
      3640 MEMB     28       DPPC     H16Z     HAL3     0.900000E-01   1.00800           0
      3641 MEMB     29       DPPC     N        NTL     -0.600000       14.0070           0
      3642 MEMB     29       DPPC     C13      CTL5    -0.350000       12.0110           0
      3643 MEMB     29       DPPC     H13A     HL       0.250000       1.00800           0
      3644 MEMB     29       DPPC     H13B     HL       0.250000       1.00800           0
      3645 MEMB     29       DPPC     H13C     HL       0.250000       1.00800           0
      3646 MEMB     29       DPPC     C14      CTL5    -0.350000       12.0110           0
      3647 MEMB     29       DPPC     H14A     HL       0.250000       1.00800           0
      3648 MEMB     29       DPPC     H14B     HL       0.250000       1.00800           0
      3649 MEMB     29       DPPC     H14C     HL       0.250000       1.00800           0
      3650 MEMB     29       DPPC     C15      CTL5    -0.350000       12.0110           0
      3651 MEMB     29       DPPC     H15A     HL       0.250000       1.00800           0
      3652 MEMB     29       DPPC     H15B     HL       0.250000       1.00800           0
      3653 MEMB     29       DPPC     H15C     HL       0.250000       1.00800           0
      3654 MEMB     29       DPPC     C12      CTL2    -0.100000       12.0110           0
      3655 MEMB     29       DPPC     H12A     HL       0.250000       1.00800           0
      3656 MEMB     29       DPPC     H12B     HL       0.250000       1.00800           0
      3657 MEMB     29       DPPC     C11      CTL2    -0.800000E-01   12.0110           0
      3658 MEMB     29       DPPC     H11A     HAL2     0.900000E-01   1.00800           0
      3659 MEMB     29       DPPC     H11B     HAL2     0.900000E-01   1.00800           0
      3660 MEMB     29       DPPC     P        PL       1.500000       30.9740           0
      3661 MEMB     29       DPPC     O13      O2L     -0.780000       15.9994           0
      3662 MEMB     29       DPPC     O14      O2L     -0.780000       15.9994           0
      3663 MEMB     29       DPPC     O11      OSLP    -0.570000       15.9994           0
      3664 MEMB     29       DPPC     O12      OSLP    -0.570000       15.9994           0
      3665 MEMB     29       DPPC     C1       CTL2    -0.800000E-01   12.0110           0
      3666 MEMB     29       DPPC     HA       HAL2     0.900000E-01   1.00800           0
      3667 MEMB     29       DPPC     HB       HAL2     0.900000E-01   1.00800           0
      3668 MEMB     29       DPPC     C2       CTL1     0.170000       12.0110           0
      3669 MEMB     29       DPPC     HS       HAL1     0.900000E-01   1.00800           0
      3670 MEMB     29       DPPC     O21      OSL     -0.490000       15.9994           0
      3671 MEMB     29       DPPC     C21      CL       0.900000       12.0110           0
      3672 MEMB     29       DPPC     O22      OBL     -0.630000       15.9994           0
      3673 MEMB     29       DPPC     C22      CTL2    -0.220000       12.0110           0
      3674 MEMB     29       DPPC     H2R      HAL2     0.900000E-01   1.00800           0
      3675 MEMB     29       DPPC     H2S      HAL2     0.900000E-01   1.00800           0
      3676 MEMB     29       DPPC     C3       CTL2     0.800000E-01   12.0110           0
      3677 MEMB     29       DPPC     HX       HAL2     0.900000E-01   1.00800           0
      3678 MEMB     29       DPPC     HY       HAL2     0.900000E-01   1.00800           0
      3679 MEMB     29       DPPC     O31      OSL     -0.490000       15.9994           0
      3680 MEMB     29       DPPC     C31      CL       0.900000       12.0110           0
      3681 MEMB     29       DPPC     O32      OBL     -0.630000       15.9994           0
      3682 MEMB     29       DPPC     C32      CTL2    -0.220000       12.0110           0
      3683 MEMB     29       DPPC     H2X      HAL2     0.900000E-01   1.00800           0
      3684 MEMB     29       DPPC     H2Y      HAL2     0.900000E-01   1.00800           0
      3685 MEMB     29       DPPC     C23      CTL2    -0.180000       12.0110           0
      3686 MEMB     29       DPPC     H3R      HAL2     0.900000E-01   1.00800           0
      3687 MEMB     29       DPPC     H3S      HAL2     0.900000E-01   1.00800           0
      3688 MEMB     29       DPPC     C24      CTL2    -0.180000       12.0110           0
      3689 MEMB     29       DPPC     H4R      HAL2     0.900000E-01   1.00800           0
      3690 MEMB     29       DPPC     H4S      HAL2     0.900000E-01   1.00800           0
      3691 MEMB     29       DPPC     C25      CTL2    -0.180000       12.0110           0
      3692 MEMB     29       DPPC     H5R      HAL2     0.900000E-01   1.00800           0
      3693 MEMB     29       DPPC     H5S      HAL2     0.900000E-01   1.00800           0
      3694 MEMB     29       DPPC     C26      CTL2    -0.180000       12.0110           0
      3695 MEMB     29       DPPC     H6R      HAL2     0.900000E-01   1.00800           0
      3696 MEMB     29       DPPC     H6S      HAL2     0.900000E-01   1.00800           0
      3697 MEMB     29       DPPC     C27      CTL2    -0.180000       12.0110           0
      3698 MEMB     29       DPPC     H7R      HAL2     0.900000E-01   1.00800           0
      3699 MEMB     29       DPPC     H7S      HAL2     0.900000E-01   1.00800           0
      3700 MEMB     29       DPPC     C28      CTL2    -0.180000       12.0110           0
      3701 MEMB     29       DPPC     H8R      HAL2     0.900000E-01   1.00800           0
      3702 MEMB     29       DPPC     H8S      HAL2     0.900000E-01   1.00800           0
      3703 MEMB     29       DPPC     C29      CTL2    -0.180000       12.0110           0
      3704 MEMB     29       DPPC     H9R      HAL2     0.900000E-01   1.00800           0
      3705 MEMB     29       DPPC     H9S      HAL2     0.900000E-01   1.00800           0
      3706 MEMB     29       DPPC     C210     CTL2    -0.180000       12.0110           0
      3707 MEMB     29       DPPC     H10R     HAL2     0.900000E-01   1.00800           0
      3708 MEMB     29       DPPC     H10S     HAL2     0.900000E-01   1.00800           0
      3709 MEMB     29       DPPC     C211     CTL2    -0.180000       12.0110           0
      3710 MEMB     29       DPPC     H11R     HAL2     0.900000E-01   1.00800           0
      3711 MEMB     29       DPPC     H11S     HAL2     0.900000E-01   1.00800           0
      3712 MEMB     29       DPPC     C212     CTL2    -0.180000       12.0110           0
      3713 MEMB     29       DPPC     H12R     HAL2     0.900000E-01   1.00800           0
      3714 MEMB     29       DPPC     H12S     HAL2     0.900000E-01   1.00800           0
      3715 MEMB     29       DPPC     C213     CTL2    -0.180000       12.0110           0
      3716 MEMB     29       DPPC     H13R     HAL2     0.900000E-01   1.00800           0
      3717 MEMB     29       DPPC     H13S     HAL2     0.900000E-01   1.00800           0
      3718 MEMB     29       DPPC     C214     CTL2    -0.180000       12.0110           0
      3719 MEMB     29       DPPC     H14R     HAL2     0.900000E-01   1.00800           0
      3720 MEMB     29       DPPC     H14S     HAL2     0.900000E-01   1.00800           0
      3721 MEMB     29       DPPC     C215     CTL2    -0.180000       12.0110           0
      3722 MEMB     29       DPPC     H15R     HAL2     0.900000E-01   1.00800           0
      3723 MEMB     29       DPPC     H15S     HAL2     0.900000E-01   1.00800           0
      3724 MEMB     29       DPPC     C216     CTL3    -0.270000       12.0110           0
      3725 MEMB     29       DPPC     H16R     HAL3     0.900000E-01   1.00800           0
      3726 MEMB     29       DPPC     H16S     HAL3     0.900000E-01   1.00800           0
      3727 MEMB     29       DPPC     H16T     HAL3     0.900000E-01   1.00800           0
      3728 MEMB     29       DPPC     C33      CTL2    -0.180000       12.0110           0
      3729 MEMB     29       DPPC     H3X      HAL2     0.900000E-01   1.00800           0
      3730 MEMB     29       DPPC     H3Y      HAL2     0.900000E-01   1.00800           0
      3731 MEMB     29       DPPC     C34      CTL2    -0.180000       12.0110           0
      3732 MEMB     29       DPPC     H4X      HAL2     0.900000E-01   1.00800           0
      3733 MEMB     29       DPPC     H4Y      HAL2     0.900000E-01   1.00800           0
      3734 MEMB     29       DPPC     C35      CTL2    -0.180000       12.0110           0
      3735 MEMB     29       DPPC     H5X      HAL2     0.900000E-01   1.00800           0
      3736 MEMB     29       DPPC     H5Y      HAL2     0.900000E-01   1.00800           0
      3737 MEMB     29       DPPC     C36      CTL2    -0.180000       12.0110           0
      3738 MEMB     29       DPPC     H6X      HAL2     0.900000E-01   1.00800           0
      3739 MEMB     29       DPPC     H6Y      HAL2     0.900000E-01   1.00800           0
      3740 MEMB     29       DPPC     C37      CTL2    -0.180000       12.0110           0
      3741 MEMB     29       DPPC     H7X      HAL2     0.900000E-01   1.00800           0
      3742 MEMB     29       DPPC     H7Y      HAL2     0.900000E-01   1.00800           0
      3743 MEMB     29       DPPC     C38      CTL2    -0.180000       12.0110           0
      3744 MEMB     29       DPPC     H8X      HAL2     0.900000E-01   1.00800           0
      3745 MEMB     29       DPPC     H8Y      HAL2     0.900000E-01   1.00800           0
      3746 MEMB     29       DPPC     C39      CTL2    -0.180000       12.0110           0
      3747 MEMB     29       DPPC     H9X      HAL2     0.900000E-01   1.00800           0
      3748 MEMB     29       DPPC     H9Y      HAL2     0.900000E-01   1.00800           0
      3749 MEMB     29       DPPC     C310     CTL2    -0.180000       12.0110           0
      3750 MEMB     29       DPPC     H10X     HAL2     0.900000E-01   1.00800           0
      3751 MEMB     29       DPPC     H10Y     HAL2     0.900000E-01   1.00800           0
      3752 MEMB     29       DPPC     C311     CTL2    -0.180000       12.0110           0
      3753 MEMB     29       DPPC     H11X     HAL2     0.900000E-01   1.00800           0
      3754 MEMB     29       DPPC     H11Y     HAL2     0.900000E-01   1.00800           0
      3755 MEMB     29       DPPC     C312     CTL2    -0.180000       12.0110           0
      3756 MEMB     29       DPPC     H12X     HAL2     0.900000E-01   1.00800           0
      3757 MEMB     29       DPPC     H12Y     HAL2     0.900000E-01   1.00800           0
      3758 MEMB     29       DPPC     C313     CTL2    -0.180000       12.0110           0
      3759 MEMB     29       DPPC     H13X     HAL2     0.900000E-01   1.00800           0
      3760 MEMB     29       DPPC     H13Y     HAL2     0.900000E-01   1.00800           0
      3761 MEMB     29       DPPC     C314     CTL2    -0.180000       12.0110           0
      3762 MEMB     29       DPPC     H14X     HAL2     0.900000E-01   1.00800           0
      3763 MEMB     29       DPPC     H14Y     HAL2     0.900000E-01   1.00800           0
      3764 MEMB     29       DPPC     C315     CTL2    -0.180000       12.0110           0
      3765 MEMB     29       DPPC     H15X     HAL2     0.900000E-01   1.00800           0
      3766 MEMB     29       DPPC     H15Y     HAL2     0.900000E-01   1.00800           0
      3767 MEMB     29       DPPC     C316     CTL3    -0.270000       12.0110           0
      3768 MEMB     29       DPPC     H16X     HAL3     0.900000E-01   1.00800           0
      3769 MEMB     29       DPPC     H16Y     HAL3     0.900000E-01   1.00800           0
      3770 MEMB     29       DPPC     H16Z     HAL3     0.900000E-01   1.00800           0
      3771 MEMB     30       DPPC     N        NTL     -0.600000       14.0070           0
      3772 MEMB     30       DPPC     C13      CTL5    -0.350000       12.0110           0
      3773 MEMB     30       DPPC     H13A     HL       0.250000       1.00800           0
      3774 MEMB     30       DPPC     H13B     HL       0.250000       1.00800           0
      3775 MEMB     30       DPPC     H13C     HL       0.250000       1.00800           0
      3776 MEMB     30       DPPC     C14      CTL5    -0.350000       12.0110           0
      3777 MEMB     30       DPPC     H14A     HL       0.250000       1.00800           0
      3778 MEMB     30       DPPC     H14B     HL       0.250000       1.00800           0
      3779 MEMB     30       DPPC     H14C     HL       0.250000       1.00800           0
      3780 MEMB     30       DPPC     C15      CTL5    -0.350000       12.0110           0
      3781 MEMB     30       DPPC     H15A     HL       0.250000       1.00800           0
      3782 MEMB     30       DPPC     H15B     HL       0.250000       1.00800           0
      3783 MEMB     30       DPPC     H15C     HL       0.250000       1.00800           0
      3784 MEMB     30       DPPC     C12      CTL2    -0.100000       12.0110           0
      3785 MEMB     30       DPPC     H12A     HL       0.250000       1.00800           0
      3786 MEMB     30       DPPC     H12B     HL       0.250000       1.00800           0
      3787 MEMB     30       DPPC     C11      CTL2    -0.800000E-01   12.0110           0
      3788 MEMB     30       DPPC     H11A     HAL2     0.900000E-01   1.00800           0
      3789 MEMB     30       DPPC     H11B     HAL2     0.900000E-01   1.00800           0
      3790 MEMB     30       DPPC     P        PL       1.500000       30.9740           0
      3791 MEMB     30       DPPC     O13      O2L     -0.780000       15.9994           0
      3792 MEMB     30       DPPC     O14      O2L     -0.780000       15.9994           0
      3793 MEMB     30       DPPC     O11      OSLP    -0.570000       15.9994           0
      3794 MEMB     30       DPPC     O12      OSLP    -0.570000       15.9994           0
      3795 MEMB     30       DPPC     C1       CTL2    -0.800000E-01   12.0110           0
      3796 MEMB     30       DPPC     HA       HAL2     0.900000E-01   1.00800           0
      3797 MEMB     30       DPPC     HB       HAL2     0.900000E-01   1.00800           0
      3798 MEMB     30       DPPC     C2       CTL1     0.170000       12.0110           0
      3799 MEMB     30       DPPC     HS       HAL1     0.900000E-01   1.00800           0
      3800 MEMB     30       DPPC     O21      OSL     -0.490000       15.9994           0
      3801 MEMB     30       DPPC     C21      CL       0.900000       12.0110           0
      3802 MEMB     30       DPPC     O22      OBL     -0.630000       15.9994           0
      3803 MEMB     30       DPPC     C22      CTL2    -0.220000       12.0110           0
      3804 MEMB     30       DPPC     H2R      HAL2     0.900000E-01   1.00800           0
      3805 MEMB     30       DPPC     H2S      HAL2     0.900000E-01   1.00800           0
      3806 MEMB     30       DPPC     C3       CTL2     0.800000E-01   12.0110           0
      3807 MEMB     30       DPPC     HX       HAL2     0.900000E-01   1.00800           0
      3808 MEMB     30       DPPC     HY       HAL2     0.900000E-01   1.00800           0
      3809 MEMB     30       DPPC     O31      OSL     -0.490000       15.9994           0
      3810 MEMB     30       DPPC     C31      CL       0.900000       12.0110           0
      3811 MEMB     30       DPPC     O32      OBL     -0.630000       15.9994           0
      3812 MEMB     30       DPPC     C32      CTL2    -0.220000       12.0110           0
      3813 MEMB     30       DPPC     H2X      HAL2     0.900000E-01   1.00800           0
      3814 MEMB     30       DPPC     H2Y      HAL2     0.900000E-01   1.00800           0
      3815 MEMB     30       DPPC     C23      CTL2    -0.180000       12.0110           0
      3816 MEMB     30       DPPC     H3R      HAL2     0.900000E-01   1.00800           0
      3817 MEMB     30       DPPC     H3S      HAL2     0.900000E-01   1.00800           0
      3818 MEMB     30       DPPC     C24      CTL2    -0.180000       12.0110           0
      3819 MEMB     30       DPPC     H4R      HAL2     0.900000E-01   1.00800           0
      3820 MEMB     30       DPPC     H4S      HAL2     0.900000E-01   1.00800           0
      3821 MEMB     30       DPPC     C25      CTL2    -0.180000       12.0110           0
      3822 MEMB     30       DPPC     H5R      HAL2     0.900000E-01   1.00800           0
      3823 MEMB     30       DPPC     H5S      HAL2     0.900000E-01   1.00800           0
      3824 MEMB     30       DPPC     C26      CTL2    -0.180000       12.0110           0
      3825 MEMB     30       DPPC     H6R      HAL2     0.900000E-01   1.00800           0
      3826 MEMB     30       DPPC     H6S      HAL2     0.900000E-01   1.00800           0
      3827 MEMB     30       DPPC     C27      CTL2    -0.180000       12.0110           0
      3828 MEMB     30       DPPC     H7R      HAL2     0.900000E-01   1.00800           0
      3829 MEMB     30       DPPC     H7S      HAL2     0.900000E-01   1.00800           0
      3830 MEMB     30       DPPC     C28      CTL2    -0.180000       12.0110           0
      3831 MEMB     30       DPPC     H8R      HAL2     0.900000E-01   1.00800           0
      3832 MEMB     30       DPPC     H8S      HAL2     0.900000E-01   1.00800           0
      3833 MEMB     30       DPPC     C29      CTL2    -0.180000       12.0110           0
      3834 MEMB     30       DPPC     H9R      HAL2     0.900000E-01   1.00800           0
      3835 MEMB     30       DPPC     H9S      HAL2     0.900000E-01   1.00800           0
      3836 MEMB     30       DPPC     C210     CTL2    -0.180000       12.0110           0
      3837 MEMB     30       DPPC     H10R     HAL2     0.900000E-01   1.00800           0
      3838 MEMB     30       DPPC     H10S     HAL2     0.900000E-01   1.00800           0
      3839 MEMB     30       DPPC     C211     CTL2    -0.180000       12.0110           0
      3840 MEMB     30       DPPC     H11R     HAL2     0.900000E-01   1.00800           0
      3841 MEMB     30       DPPC     H11S     HAL2     0.900000E-01   1.00800           0
      3842 MEMB     30       DPPC     C212     CTL2    -0.180000       12.0110           0
      3843 MEMB     30       DPPC     H12R     HAL2     0.900000E-01   1.00800           0
      3844 MEMB     30       DPPC     H12S     HAL2     0.900000E-01   1.00800           0
      3845 MEMB     30       DPPC     C213     CTL2    -0.180000       12.0110           0
      3846 MEMB     30       DPPC     H13R     HAL2     0.900000E-01   1.00800           0
      3847 MEMB     30       DPPC     H13S     HAL2     0.900000E-01   1.00800           0
      3848 MEMB     30       DPPC     C214     CTL2    -0.180000       12.0110           0
      3849 MEMB     30       DPPC     H14R     HAL2     0.900000E-01   1.00800           0
      3850 MEMB     30       DPPC     H14S     HAL2     0.900000E-01   1.00800           0
      3851 MEMB     30       DPPC     C215     CTL2    -0.180000       12.0110           0
      3852 MEMB     30       DPPC     H15R     HAL2     0.900000E-01   1.00800           0
      3853 MEMB     30       DPPC     H15S     HAL2     0.900000E-01   1.00800           0
      3854 MEMB     30       DPPC     C216     CTL3    -0.270000       12.0110           0
      3855 MEMB     30       DPPC     H16R     HAL3     0.900000E-01   1.00800           0
      3856 MEMB     30       DPPC     H16S     HAL3     0.900000E-01   1.00800           0
      3857 MEMB     30       DPPC     H16T     HAL3     0.900000E-01   1.00800           0
      3858 MEMB     30       DPPC     C33      CTL2    -0.180000       12.0110           0
      3859 MEMB     30       DPPC     H3X      HAL2     0.900000E-01   1.00800           0
      3860 MEMB     30       DPPC     H3Y      HAL2     0.900000E-01   1.00800           0
      3861 MEMB     30       DPPC     C34      CTL2    -0.180000       12.0110           0
      3862 MEMB     30       DPPC     H4X      HAL2     0.900000E-01   1.00800           0
      3863 MEMB     30       DPPC     H4Y      HAL2     0.900000E-01   1.00800           0
      3864 MEMB     30       DPPC     C35      CTL2    -0.180000       12.0110           0
      3865 MEMB     30       DPPC     H5X      HAL2     0.900000E-01   1.00800           0
      3866 MEMB     30       DPPC     H5Y      HAL2     0.900000E-01   1.00800           0
      3867 MEMB     30       DPPC     C36      CTL2    -0.180000       12.0110           0
      3868 MEMB     30       DPPC     H6X      HAL2     0.900000E-01   1.00800           0
      3869 MEMB     30       DPPC     H6Y      HAL2     0.900000E-01   1.00800           0
      3870 MEMB     30       DPPC     C37      CTL2    -0.180000       12.0110           0
      3871 MEMB     30       DPPC     H7X      HAL2     0.900000E-01   1.00800           0
      3872 MEMB     30       DPPC     H7Y      HAL2     0.900000E-01   1.00800           0
      3873 MEMB     30       DPPC     C38      CTL2    -0.180000       12.0110           0
      3874 MEMB     30       DPPC     H8X      HAL2     0.900000E-01   1.00800           0
      3875 MEMB     30       DPPC     H8Y      HAL2     0.900000E-01   1.00800           0
      3876 MEMB     30       DPPC     C39      CTL2    -0.180000       12.0110           0
      3877 MEMB     30       DPPC     H9X      HAL2     0.900000E-01   1.00800           0
      3878 MEMB     30       DPPC     H9Y      HAL2     0.900000E-01   1.00800           0
      3879 MEMB     30       DPPC     C310     CTL2    -0.180000       12.0110           0
      3880 MEMB     30       DPPC     H10X     HAL2     0.900000E-01   1.00800           0
      3881 MEMB     30       DPPC     H10Y     HAL2     0.900000E-01   1.00800           0
      3882 MEMB     30       DPPC     C311     CTL2    -0.180000       12.0110           0
      3883 MEMB     30       DPPC     H11X     HAL2     0.900000E-01   1.00800           0
      3884 MEMB     30       DPPC     H11Y     HAL2     0.900000E-01   1.00800           0
      3885 MEMB     30       DPPC     C312     CTL2    -0.180000       12.0110           0
      3886 MEMB     30       DPPC     H12X     HAL2     0.900000E-01   1.00800           0
      3887 MEMB     30       DPPC     H12Y     HAL2     0.900000E-01   1.00800           0
      3888 MEMB     30       DPPC     C313     CTL2    -0.180000       12.0110           0
      3889 MEMB     30       DPPC     H13X     HAL2     0.900000E-01   1.00800           0
      3890 MEMB     30       DPPC     H13Y     HAL2     0.900000E-01   1.00800           0
      3891 MEMB     30       DPPC     C314     CTL2    -0.180000       12.0110           0
      3892 MEMB     30       DPPC     H14X     HAL2     0.900000E-01   1.00800           0
      3893 MEMB     30       DPPC     H14Y     HAL2     0.900000E-01   1.00800           0
      3894 MEMB     30       DPPC     C315     CTL2    -0.180000       12.0110           0
      3895 MEMB     30       DPPC     H15X     HAL2     0.900000E-01   1.00800           0
      3896 MEMB     30       DPPC     H15Y     HAL2     0.900000E-01   1.00800           0
      3897 MEMB     30       DPPC     C316     CTL3    -0.270000       12.0110           0
      3898 MEMB     30       DPPC     H16X     HAL3     0.900000E-01   1.00800           0
      3899 MEMB     30       DPPC     H16Y     HAL3     0.900000E-01   1.00800           0
      3900 MEMB     30       DPPC     H16Z     HAL3     0.900000E-01   1.00800           0
      3901 MEMB     31       DPPC     N        NTL     -0.600000       14.0070           0
      3902 MEMB     31       DPPC     C13      CTL5    -0.350000       12.0110           0
      3903 MEMB     31       DPPC     H13A     HL       0.250000       1.00800           0
      3904 MEMB     31       DPPC     H13B     HL       0.250000       1.00800           0
      3905 MEMB     31       DPPC     H13C     HL       0.250000       1.00800           0
      3906 MEMB     31       DPPC     C14      CTL5    -0.350000       12.0110           0
      3907 MEMB     31       DPPC     H14A     HL       0.250000       1.00800           0
      3908 MEMB     31       DPPC     H14B     HL       0.250000       1.00800           0
      3909 MEMB     31       DPPC     H14C     HL       0.250000       1.00800           0
      3910 MEMB     31       DPPC     C15      CTL5    -0.350000       12.0110           0
      3911 MEMB     31       DPPC     H15A     HL       0.250000       1.00800           0
      3912 MEMB     31       DPPC     H15B     HL       0.250000       1.00800           0
      3913 MEMB     31       DPPC     H15C     HL       0.250000       1.00800           0
      3914 MEMB     31       DPPC     C12      CTL2    -0.100000       12.0110           0
      3915 MEMB     31       DPPC     H12A     HL       0.250000       1.00800           0
      3916 MEMB     31       DPPC     H12B     HL       0.250000       1.00800           0
      3917 MEMB     31       DPPC     C11      CTL2    -0.800000E-01   12.0110           0
      3918 MEMB     31       DPPC     H11A     HAL2     0.900000E-01   1.00800           0
      3919 MEMB     31       DPPC     H11B     HAL2     0.900000E-01   1.00800           0
      3920 MEMB     31       DPPC     P        PL       1.500000       30.9740           0
      3921 MEMB     31       DPPC     O13      O2L     -0.780000       15.9994           0
      3922 MEMB     31       DPPC     O14      O2L     -0.780000       15.9994           0
      3923 MEMB     31       DPPC     O11      OSLP    -0.570000       15.9994           0
      3924 MEMB     31       DPPC     O12      OSLP    -0.570000       15.9994           0
      3925 MEMB     31       DPPC     C1       CTL2    -0.800000E-01   12.0110           0
      3926 MEMB     31       DPPC     HA       HAL2     0.900000E-01   1.00800           0
      3927 MEMB     31       DPPC     HB       HAL2     0.900000E-01   1.00800           0
      3928 MEMB     31       DPPC     C2       CTL1     0.170000       12.0110           0
      3929 MEMB     31       DPPC     HS       HAL1     0.900000E-01   1.00800           0
      3930 MEMB     31       DPPC     O21      OSL     -0.490000       15.9994           0
      3931 MEMB     31       DPPC     C21      CL       0.900000       12.0110           0
      3932 MEMB     31       DPPC     O22      OBL     -0.630000       15.9994           0
      3933 MEMB     31       DPPC     C22      CTL2    -0.220000       12.0110           0
      3934 MEMB     31       DPPC     H2R      HAL2     0.900000E-01   1.00800           0
      3935 MEMB     31       DPPC     H2S      HAL2     0.900000E-01   1.00800           0
      3936 MEMB     31       DPPC     C3       CTL2     0.800000E-01   12.0110           0
      3937 MEMB     31       DPPC     HX       HAL2     0.900000E-01   1.00800           0
      3938 MEMB     31       DPPC     HY       HAL2     0.900000E-01   1.00800           0
      3939 MEMB     31       DPPC     O31      OSL     -0.490000       15.9994           0
      3940 MEMB     31       DPPC     C31      CL       0.900000       12.0110           0
      3941 MEMB     31       DPPC     O32      OBL     -0.630000       15.9994           0
      3942 MEMB     31       DPPC     C32      CTL2    -0.220000       12.0110           0
      3943 MEMB     31       DPPC     H2X      HAL2     0.900000E-01   1.00800           0
      3944 MEMB     31       DPPC     H2Y      HAL2     0.900000E-01   1.00800           0
      3945 MEMB     31       DPPC     C23      CTL2    -0.180000       12.0110           0
      3946 MEMB     31       DPPC     H3R      HAL2     0.900000E-01   1.00800           0
      3947 MEMB     31       DPPC     H3S      HAL2     0.900000E-01   1.00800           0
      3948 MEMB     31       DPPC     C24      CTL2    -0.180000       12.0110           0
      3949 MEMB     31       DPPC     H4R      HAL2     0.900000E-01   1.00800           0
      3950 MEMB     31       DPPC     H4S      HAL2     0.900000E-01   1.00800           0
      3951 MEMB     31       DPPC     C25      CTL2    -0.180000       12.0110           0
      3952 MEMB     31       DPPC     H5R      HAL2     0.900000E-01   1.00800           0
      3953 MEMB     31       DPPC     H5S      HAL2     0.900000E-01   1.00800           0
      3954 MEMB     31       DPPC     C26      CTL2    -0.180000       12.0110           0
      3955 MEMB     31       DPPC     H6R      HAL2     0.900000E-01   1.00800           0
      3956 MEMB     31       DPPC     H6S      HAL2     0.900000E-01   1.00800           0
      3957 MEMB     31       DPPC     C27      CTL2    -0.180000       12.0110           0
      3958 MEMB     31       DPPC     H7R      HAL2     0.900000E-01   1.00800           0
      3959 MEMB     31       DPPC     H7S      HAL2     0.900000E-01   1.00800           0
      3960 MEMB     31       DPPC     C28      CTL2    -0.180000       12.0110           0
      3961 MEMB     31       DPPC     H8R      HAL2     0.900000E-01   1.00800           0
      3962 MEMB     31       DPPC     H8S      HAL2     0.900000E-01   1.00800           0
      3963 MEMB     31       DPPC     C29      CTL2    -0.180000       12.0110           0
      3964 MEMB     31       DPPC     H9R      HAL2     0.900000E-01   1.00800           0
      3965 MEMB     31       DPPC     H9S      HAL2     0.900000E-01   1.00800           0
      3966 MEMB     31       DPPC     C210     CTL2    -0.180000       12.0110           0
      3967 MEMB     31       DPPC     H10R     HAL2     0.900000E-01   1.00800           0
      3968 MEMB     31       DPPC     H10S     HAL2     0.900000E-01   1.00800           0
      3969 MEMB     31       DPPC     C211     CTL2    -0.180000       12.0110           0
      3970 MEMB     31       DPPC     H11R     HAL2     0.900000E-01   1.00800           0
      3971 MEMB     31       DPPC     H11S     HAL2     0.900000E-01   1.00800           0
      3972 MEMB     31       DPPC     C212     CTL2    -0.180000       12.0110           0
      3973 MEMB     31       DPPC     H12R     HAL2     0.900000E-01   1.00800           0
      3974 MEMB     31       DPPC     H12S     HAL2     0.900000E-01   1.00800           0
      3975 MEMB     31       DPPC     C213     CTL2    -0.180000       12.0110           0
      3976 MEMB     31       DPPC     H13R     HAL2     0.900000E-01   1.00800           0
      3977 MEMB     31       DPPC     H13S     HAL2     0.900000E-01   1.00800           0
      3978 MEMB     31       DPPC     C214     CTL2    -0.180000       12.0110           0
      3979 MEMB     31       DPPC     H14R     HAL2     0.900000E-01   1.00800           0
      3980 MEMB     31       DPPC     H14S     HAL2     0.900000E-01   1.00800           0
      3981 MEMB     31       DPPC     C215     CTL2    -0.180000       12.0110           0
      3982 MEMB     31       DPPC     H15R     HAL2     0.900000E-01   1.00800           0
      3983 MEMB     31       DPPC     H15S     HAL2     0.900000E-01   1.00800           0
      3984 MEMB     31       DPPC     C216     CTL3    -0.270000       12.0110           0
      3985 MEMB     31       DPPC     H16R     HAL3     0.900000E-01   1.00800           0
      3986 MEMB     31       DPPC     H16S     HAL3     0.900000E-01   1.00800           0
      3987 MEMB     31       DPPC     H16T     HAL3     0.900000E-01   1.00800           0
      3988 MEMB     31       DPPC     C33      CTL2    -0.180000       12.0110           0
      3989 MEMB     31       DPPC     H3X      HAL2     0.900000E-01   1.00800           0
      3990 MEMB     31       DPPC     H3Y      HAL2     0.900000E-01   1.00800           0
      3991 MEMB     31       DPPC     C34      CTL2    -0.180000       12.0110           0
      3992 MEMB     31       DPPC     H4X      HAL2     0.900000E-01   1.00800           0
      3993 MEMB     31       DPPC     H4Y      HAL2     0.900000E-01   1.00800           0
      3994 MEMB     31       DPPC     C35      CTL2    -0.180000       12.0110           0
      3995 MEMB     31       DPPC     H5X      HAL2     0.900000E-01   1.00800           0
      3996 MEMB     31       DPPC     H5Y      HAL2     0.900000E-01   1.00800           0
      3997 MEMB     31       DPPC     C36      CTL2    -0.180000       12.0110           0
      3998 MEMB     31       DPPC     H6X      HAL2     0.900000E-01   1.00800           0
      3999 MEMB     31       DPPC     H6Y      HAL2     0.900000E-01   1.00800           0
      4000 MEMB     31       DPPC     C37      CTL2    -0.180000       12.0110           0
      4001 MEMB     31       DPPC     H7X      HAL2     0.900000E-01   1.00800           0
      4002 MEMB     31       DPPC     H7Y      HAL2     0.900000E-01   1.00800           0
      4003 MEMB     31       DPPC     C38      CTL2    -0.180000       12.0110           0
      4004 MEMB     31       DPPC     H8X      HAL2     0.900000E-01   1.00800           0
      4005 MEMB     31       DPPC     H8Y      HAL2     0.900000E-01   1.00800           0
      4006 MEMB     31       DPPC     C39      CTL2    -0.180000       12.0110           0
      4007 MEMB     31       DPPC     H9X      HAL2     0.900000E-01   1.00800           0
      4008 MEMB     31       DPPC     H9Y      HAL2     0.900000E-01   1.00800           0
      4009 MEMB     31       DPPC     C310     CTL2    -0.180000       12.0110           0
      4010 MEMB     31       DPPC     H10X     HAL2     0.900000E-01   1.00800           0
      4011 MEMB     31       DPPC     H10Y     HAL2     0.900000E-01   1.00800           0
      4012 MEMB     31       DPPC     C311     CTL2    -0.180000       12.0110           0
      4013 MEMB     31       DPPC     H11X     HAL2     0.900000E-01   1.00800           0
      4014 MEMB     31       DPPC     H11Y     HAL2     0.900000E-01   1.00800           0
      4015 MEMB     31       DPPC     C312     CTL2    -0.180000       12.0110           0
      4016 MEMB     31       DPPC     H12X     HAL2     0.900000E-01   1.00800           0
      4017 MEMB     31       DPPC     H12Y     HAL2     0.900000E-01   1.00800           0
      4018 MEMB     31       DPPC     C313     CTL2    -0.180000       12.0110           0
      4019 MEMB     31       DPPC     H13X     HAL2     0.900000E-01   1.00800           0
      4020 MEMB     31       DPPC     H13Y     HAL2     0.900000E-01   1.00800           0
      4021 MEMB     31       DPPC     C314     CTL2    -0.180000       12.0110           0
      4022 MEMB     31       DPPC     H14X     HAL2     0.900000E-01   1.00800           0
      4023 MEMB     31       DPPC     H14Y     HAL2     0.900000E-01   1.00800           0
      4024 MEMB     31       DPPC     C315     CTL2    -0.180000       12.0110           0
      4025 MEMB     31       DPPC     H15X     HAL2     0.900000E-01   1.00800           0
      4026 MEMB     31       DPPC     H15Y     HAL2     0.900000E-01   1.00800           0
      4027 MEMB     31       DPPC     C316     CTL3    -0.270000       12.0110           0
      4028 MEMB     31       DPPC     H16X     HAL3     0.900000E-01   1.00800           0
      4029 MEMB     31       DPPC     H16Y     HAL3     0.900000E-01   1.00800           0
      4030 MEMB     31       DPPC     H16Z     HAL3     0.900000E-01   1.00800           0
      4031 MEMB     32       DPPC     N        NTL     -0.600000       14.0070           0
      4032 MEMB     32       DPPC     C13      CTL5    -0.350000       12.0110           0
      4033 MEMB     32       DPPC     H13A     HL       0.250000       1.00800           0
      4034 MEMB     32       DPPC     H13B     HL       0.250000       1.00800           0
      4035 MEMB     32       DPPC     H13C     HL       0.250000       1.00800           0
      4036 MEMB     32       DPPC     C14      CTL5    -0.350000       12.0110           0
      4037 MEMB     32       DPPC     H14A     HL       0.250000       1.00800           0
      4038 MEMB     32       DPPC     H14B     HL       0.250000       1.00800           0
      4039 MEMB     32       DPPC     H14C     HL       0.250000       1.00800           0
      4040 MEMB     32       DPPC     C15      CTL5    -0.350000       12.0110           0
      4041 MEMB     32       DPPC     H15A     HL       0.250000       1.00800           0
      4042 MEMB     32       DPPC     H15B     HL       0.250000       1.00800           0
      4043 MEMB     32       DPPC     H15C     HL       0.250000       1.00800           0
      4044 MEMB     32       DPPC     C12      CTL2    -0.100000       12.0110           0
      4045 MEMB     32       DPPC     H12A     HL       0.250000       1.00800           0
      4046 MEMB     32       DPPC     H12B     HL       0.250000       1.00800           0
      4047 MEMB     32       DPPC     C11      CTL2    -0.800000E-01   12.0110           0
      4048 MEMB     32       DPPC     H11A     HAL2     0.900000E-01   1.00800           0
      4049 MEMB     32       DPPC     H11B     HAL2     0.900000E-01   1.00800           0
      4050 MEMB     32       DPPC     P        PL       1.500000       30.9740           0
      4051 MEMB     32       DPPC     O13      O2L     -0.780000       15.9994           0
      4052 MEMB     32       DPPC     O14      O2L     -0.780000       15.9994           0
      4053 MEMB     32       DPPC     O11      OSLP    -0.570000       15.9994           0
      4054 MEMB     32       DPPC     O12      OSLP    -0.570000       15.9994           0
      4055 MEMB     32       DPPC     C1       CTL2    -0.800000E-01   12.0110           0
      4056 MEMB     32       DPPC     HA       HAL2     0.900000E-01   1.00800           0
      4057 MEMB     32       DPPC     HB       HAL2     0.900000E-01   1.00800           0
      4058 MEMB     32       DPPC     C2       CTL1     0.170000       12.0110           0
      4059 MEMB     32       DPPC     HS       HAL1     0.900000E-01   1.00800           0
      4060 MEMB     32       DPPC     O21      OSL     -0.490000       15.9994           0
      4061 MEMB     32       DPPC     C21      CL       0.900000       12.0110           0
      4062 MEMB     32       DPPC     O22      OBL     -0.630000       15.9994           0
      4063 MEMB     32       DPPC     C22      CTL2    -0.220000       12.0110           0
      4064 MEMB     32       DPPC     H2R      HAL2     0.900000E-01   1.00800           0
      4065 MEMB     32       DPPC     H2S      HAL2     0.900000E-01   1.00800           0
      4066 MEMB     32       DPPC     C3       CTL2     0.800000E-01   12.0110           0
      4067 MEMB     32       DPPC     HX       HAL2     0.900000E-01   1.00800           0
      4068 MEMB     32       DPPC     HY       HAL2     0.900000E-01   1.00800           0
      4069 MEMB     32       DPPC     O31      OSL     -0.490000       15.9994           0
      4070 MEMB     32       DPPC     C31      CL       0.900000       12.0110           0
      4071 MEMB     32       DPPC     O32      OBL     -0.630000       15.9994           0
      4072 MEMB     32       DPPC     C32      CTL2    -0.220000       12.0110           0
      4073 MEMB     32       DPPC     H2X      HAL2     0.900000E-01   1.00800           0
      4074 MEMB     32       DPPC     H2Y      HAL2     0.900000E-01   1.00800           0
      4075 MEMB     32       DPPC     C23      CTL2    -0.180000       12.0110           0
      4076 MEMB     32       DPPC     H3R      HAL2     0.900000E-01   1.00800           0
      4077 MEMB     32       DPPC     H3S      HAL2     0.900000E-01   1.00800           0
      4078 MEMB     32       DPPC     C24      CTL2    -0.180000       12.0110           0
      4079 MEMB     32       DPPC     H4R      HAL2     0.900000E-01   1.00800           0
      4080 MEMB     32       DPPC     H4S      HAL2     0.900000E-01   1.00800           0
      4081 MEMB     32       DPPC     C25      CTL2    -0.180000       12.0110           0
      4082 MEMB     32       DPPC     H5R      HAL2     0.900000E-01   1.00800           0
      4083 MEMB     32       DPPC     H5S      HAL2     0.900000E-01   1.00800           0
      4084 MEMB     32       DPPC     C26      CTL2    -0.180000       12.0110           0
      4085 MEMB     32       DPPC     H6R      HAL2     0.900000E-01   1.00800           0
      4086 MEMB     32       DPPC     H6S      HAL2     0.900000E-01   1.00800           0
      4087 MEMB     32       DPPC     C27      CTL2    -0.180000       12.0110           0
      4088 MEMB     32       DPPC     H7R      HAL2     0.900000E-01   1.00800           0
      4089 MEMB     32       DPPC     H7S      HAL2     0.900000E-01   1.00800           0
      4090 MEMB     32       DPPC     C28      CTL2    -0.180000       12.0110           0
      4091 MEMB     32       DPPC     H8R      HAL2     0.900000E-01   1.00800           0
      4092 MEMB     32       DPPC     H8S      HAL2     0.900000E-01   1.00800           0
      4093 MEMB     32       DPPC     C29      CTL2    -0.180000       12.0110           0
      4094 MEMB     32       DPPC     H9R      HAL2     0.900000E-01   1.00800           0
      4095 MEMB     32       DPPC     H9S      HAL2     0.900000E-01   1.00800           0
      4096 MEMB     32       DPPC     C210     CTL2    -0.180000       12.0110           0
      4097 MEMB     32       DPPC     H10R     HAL2     0.900000E-01   1.00800           0
      4098 MEMB     32       DPPC     H10S     HAL2     0.900000E-01   1.00800           0
      4099 MEMB     32       DPPC     C211     CTL2    -0.180000       12.0110           0
      4100 MEMB     32       DPPC     H11R     HAL2     0.900000E-01   1.00800           0
      4101 MEMB     32       DPPC     H11S     HAL2     0.900000E-01   1.00800           0
      4102 MEMB     32       DPPC     C212     CTL2    -0.180000       12.0110           0
      4103 MEMB     32       DPPC     H12R     HAL2     0.900000E-01   1.00800           0
      4104 MEMB     32       DPPC     H12S     HAL2     0.900000E-01   1.00800           0
      4105 MEMB     32       DPPC     C213     CTL2    -0.180000       12.0110           0
      4106 MEMB     32       DPPC     H13R     HAL2     0.900000E-01   1.00800           0
      4107 MEMB     32       DPPC     H13S     HAL2     0.900000E-01   1.00800           0
      4108 MEMB     32       DPPC     C214     CTL2    -0.180000       12.0110           0
      4109 MEMB     32       DPPC     H14R     HAL2     0.900000E-01   1.00800           0
      4110 MEMB     32       DPPC     H14S     HAL2     0.900000E-01   1.00800           0
      4111 MEMB     32       DPPC     C215     CTL2    -0.180000       12.0110           0
      4112 MEMB     32       DPPC     H15R     HAL2     0.900000E-01   1.00800           0
      4113 MEMB     32       DPPC     H15S     HAL2     0.900000E-01   1.00800           0
      4114 MEMB     32       DPPC     C216     CTL3    -0.270000       12.0110           0
      4115 MEMB     32       DPPC     H16R     HAL3     0.900000E-01   1.00800           0
      4116 MEMB     32       DPPC     H16S     HAL3     0.900000E-01   1.00800           0
      4117 MEMB     32       DPPC     H16T     HAL3     0.900000E-01   1.00800           0
      4118 MEMB     32       DPPC     C33      CTL2    -0.180000       12.0110           0
      4119 MEMB     32       DPPC     H3X      HAL2     0.900000E-01   1.00800           0
      4120 MEMB     32       DPPC     H3Y      HAL2     0.900000E-01   1.00800           0
      4121 MEMB     32       DPPC     C34      CTL2    -0.180000       12.0110           0
      4122 MEMB     32       DPPC     H4X      HAL2     0.900000E-01   1.00800           0
      4123 MEMB     32       DPPC     H4Y      HAL2     0.900000E-01   1.00800           0
      4124 MEMB     32       DPPC     C35      CTL2    -0.180000       12.0110           0
      4125 MEMB     32       DPPC     H5X      HAL2     0.900000E-01   1.00800           0
      4126 MEMB     32       DPPC     H5Y      HAL2     0.900000E-01   1.00800           0
      4127 MEMB     32       DPPC     C36      CTL2    -0.180000       12.0110           0
      4128 MEMB     32       DPPC     H6X      HAL2     0.900000E-01   1.00800           0
      4129 MEMB     32       DPPC     H6Y      HAL2     0.900000E-01   1.00800           0
      4130 MEMB     32       DPPC     C37      CTL2    -0.180000       12.0110           0
      4131 MEMB     32       DPPC     H7X      HAL2     0.900000E-01   1.00800           0
      4132 MEMB     32       DPPC     H7Y      HAL2     0.900000E-01   1.00800           0
      4133 MEMB     32       DPPC     C38      CTL2    -0.180000       12.0110           0
      4134 MEMB     32       DPPC     H8X      HAL2     0.900000E-01   1.00800           0
      4135 MEMB     32       DPPC     H8Y      HAL2     0.900000E-01   1.00800           0
      4136 MEMB     32       DPPC     C39      CTL2    -0.180000       12.0110           0
      4137 MEMB     32       DPPC     H9X      HAL2     0.900000E-01   1.00800           0
      4138 MEMB     32       DPPC     H9Y      HAL2     0.900000E-01   1.00800           0
      4139 MEMB     32       DPPC     C310     CTL2    -0.180000       12.0110           0
      4140 MEMB     32       DPPC     H10X     HAL2     0.900000E-01   1.00800           0
      4141 MEMB     32       DPPC     H10Y     HAL2     0.900000E-01   1.00800           0
      4142 MEMB     32       DPPC     C311     CTL2    -0.180000       12.0110           0
      4143 MEMB     32       DPPC     H11X     HAL2     0.900000E-01   1.00800           0
      4144 MEMB     32       DPPC     H11Y     HAL2     0.900000E-01   1.00800           0
      4145 MEMB     32       DPPC     C312     CTL2    -0.180000       12.0110           0
      4146 MEMB     32       DPPC     H12X     HAL2     0.900000E-01   1.00800           0
      4147 MEMB     32       DPPC     H12Y     HAL2     0.900000E-01   1.00800           0
      4148 MEMB     32       DPPC     C313     CTL2    -0.180000       12.0110           0
      4149 MEMB     32       DPPC     H13X     HAL2     0.900000E-01   1.00800           0
      4150 MEMB     32       DPPC     H13Y     HAL2     0.900000E-01   1.00800           0
      4151 MEMB     32       DPPC     C314     CTL2    -0.180000       12.0110           0
      4152 MEMB     32       DPPC     H14X     HAL2     0.900000E-01   1.00800           0
      4153 MEMB     32       DPPC     H14Y     HAL2     0.900000E-01   1.00800           0
      4154 MEMB     32       DPPC     C315     CTL2    -0.180000       12.0110           0
      4155 MEMB     32       DPPC     H15X     HAL2     0.900000E-01   1.00800           0
      4156 MEMB     32       DPPC     H15Y     HAL2     0.900000E-01   1.00800           0
      4157 MEMB     32       DPPC     C316     CTL3    -0.270000       12.0110           0
      4158 MEMB     32       DPPC     H16X     HAL3     0.900000E-01   1.00800           0
      4159 MEMB     32       DPPC     H16Y     HAL3     0.900000E-01   1.00800           0
      4160 MEMB     32       DPPC     H16Z     HAL3     0.900000E-01   1.00800           0
      4161 MEMB     33       DPPC     N        NTL     -0.600000       14.0070           0
      4162 MEMB     33       DPPC     C13      CTL5    -0.350000       12.0110           0
      4163 MEMB     33       DPPC     H13A     HL       0.250000       1.00800           0
      4164 MEMB     33       DPPC     H13B     HL       0.250000       1.00800           0
      4165 MEMB     33       DPPC     H13C     HL       0.250000       1.00800           0
      4166 MEMB     33       DPPC     C14      CTL5    -0.350000       12.0110           0
      4167 MEMB     33       DPPC     H14A     HL       0.250000       1.00800           0
      4168 MEMB     33       DPPC     H14B     HL       0.250000       1.00800           0
      4169 MEMB     33       DPPC     H14C     HL       0.250000       1.00800           0
      4170 MEMB     33       DPPC     C15      CTL5    -0.350000       12.0110           0
      4171 MEMB     33       DPPC     H15A     HL       0.250000       1.00800           0
      4172 MEMB     33       DPPC     H15B     HL       0.250000       1.00800           0
      4173 MEMB     33       DPPC     H15C     HL       0.250000       1.00800           0
      4174 MEMB     33       DPPC     C12      CTL2    -0.100000       12.0110           0
      4175 MEMB     33       DPPC     H12A     HL       0.250000       1.00800           0
      4176 MEMB     33       DPPC     H12B     HL       0.250000       1.00800           0
      4177 MEMB     33       DPPC     C11      CTL2    -0.800000E-01   12.0110           0
      4178 MEMB     33       DPPC     H11A     HAL2     0.900000E-01   1.00800           0
      4179 MEMB     33       DPPC     H11B     HAL2     0.900000E-01   1.00800           0
      4180 MEMB     33       DPPC     P        PL       1.500000       30.9740           0
      4181 MEMB     33       DPPC     O13      O2L     -0.780000       15.9994           0
      4182 MEMB     33       DPPC     O14      O2L     -0.780000       15.9994           0
      4183 MEMB     33       DPPC     O11      OSLP    -0.570000       15.9994           0
      4184 MEMB     33       DPPC     O12      OSLP    -0.570000       15.9994           0
      4185 MEMB     33       DPPC     C1       CTL2    -0.800000E-01   12.0110           0
      4186 MEMB     33       DPPC     HA       HAL2     0.900000E-01   1.00800           0
      4187 MEMB     33       DPPC     HB       HAL2     0.900000E-01   1.00800           0
      4188 MEMB     33       DPPC     C2       CTL1     0.170000       12.0110           0
      4189 MEMB     33       DPPC     HS       HAL1     0.900000E-01   1.00800           0
      4190 MEMB     33       DPPC     O21      OSL     -0.490000       15.9994           0
      4191 MEMB     33       DPPC     C21      CL       0.900000       12.0110           0
      4192 MEMB     33       DPPC     O22      OBL     -0.630000       15.9994           0
      4193 MEMB     33       DPPC     C22      CTL2    -0.220000       12.0110           0
      4194 MEMB     33       DPPC     H2R      HAL2     0.900000E-01   1.00800           0
      4195 MEMB     33       DPPC     H2S      HAL2     0.900000E-01   1.00800           0
      4196 MEMB     33       DPPC     C3       CTL2     0.800000E-01   12.0110           0
      4197 MEMB     33       DPPC     HX       HAL2     0.900000E-01   1.00800           0
      4198 MEMB     33       DPPC     HY       HAL2     0.900000E-01   1.00800           0
      4199 MEMB     33       DPPC     O31      OSL     -0.490000       15.9994           0
      4200 MEMB     33       DPPC     C31      CL       0.900000       12.0110           0
      4201 MEMB     33       DPPC     O32      OBL     -0.630000       15.9994           0
      4202 MEMB     33       DPPC     C32      CTL2    -0.220000       12.0110           0
      4203 MEMB     33       DPPC     H2X      HAL2     0.900000E-01   1.00800           0
      4204 MEMB     33       DPPC     H2Y      HAL2     0.900000E-01   1.00800           0
      4205 MEMB     33       DPPC     C23      CTL2    -0.180000       12.0110           0
      4206 MEMB     33       DPPC     H3R      HAL2     0.900000E-01   1.00800           0
      4207 MEMB     33       DPPC     H3S      HAL2     0.900000E-01   1.00800           0
      4208 MEMB     33       DPPC     C24      CTL2    -0.180000       12.0110           0
      4209 MEMB     33       DPPC     H4R      HAL2     0.900000E-01   1.00800           0
      4210 MEMB     33       DPPC     H4S      HAL2     0.900000E-01   1.00800           0
      4211 MEMB     33       DPPC     C25      CTL2    -0.180000       12.0110           0
      4212 MEMB     33       DPPC     H5R      HAL2     0.900000E-01   1.00800           0
      4213 MEMB     33       DPPC     H5S      HAL2     0.900000E-01   1.00800           0
      4214 MEMB     33       DPPC     C26      CTL2    -0.180000       12.0110           0
      4215 MEMB     33       DPPC     H6R      HAL2     0.900000E-01   1.00800           0
      4216 MEMB     33       DPPC     H6S      HAL2     0.900000E-01   1.00800           0
      4217 MEMB     33       DPPC     C27      CTL2    -0.180000       12.0110           0
      4218 MEMB     33       DPPC     H7R      HAL2     0.900000E-01   1.00800           0
      4219 MEMB     33       DPPC     H7S      HAL2     0.900000E-01   1.00800           0
      4220 MEMB     33       DPPC     C28      CTL2    -0.180000       12.0110           0
      4221 MEMB     33       DPPC     H8R      HAL2     0.900000E-01   1.00800           0
      4222 MEMB     33       DPPC     H8S      HAL2     0.900000E-01   1.00800           0
      4223 MEMB     33       DPPC     C29      CTL2    -0.180000       12.0110           0
      4224 MEMB     33       DPPC     H9R      HAL2     0.900000E-01   1.00800           0
      4225 MEMB     33       DPPC     H9S      HAL2     0.900000E-01   1.00800           0
      4226 MEMB     33       DPPC     C210     CTL2    -0.180000       12.0110           0
      4227 MEMB     33       DPPC     H10R     HAL2     0.900000E-01   1.00800           0
      4228 MEMB     33       DPPC     H10S     HAL2     0.900000E-01   1.00800           0
      4229 MEMB     33       DPPC     C211     CTL2    -0.180000       12.0110           0
      4230 MEMB     33       DPPC     H11R     HAL2     0.900000E-01   1.00800           0
      4231 MEMB     33       DPPC     H11S     HAL2     0.900000E-01   1.00800           0
      4232 MEMB     33       DPPC     C212     CTL2    -0.180000       12.0110           0
      4233 MEMB     33       DPPC     H12R     HAL2     0.900000E-01   1.00800           0
      4234 MEMB     33       DPPC     H12S     HAL2     0.900000E-01   1.00800           0
      4235 MEMB     33       DPPC     C213     CTL2    -0.180000       12.0110           0
      4236 MEMB     33       DPPC     H13R     HAL2     0.900000E-01   1.00800           0
      4237 MEMB     33       DPPC     H13S     HAL2     0.900000E-01   1.00800           0
      4238 MEMB     33       DPPC     C214     CTL2    -0.180000       12.0110           0
      4239 MEMB     33       DPPC     H14R     HAL2     0.900000E-01   1.00800           0
      4240 MEMB     33       DPPC     H14S     HAL2     0.900000E-01   1.00800           0
      4241 MEMB     33       DPPC     C215     CTL2    -0.180000       12.0110           0
      4242 MEMB     33       DPPC     H15R     HAL2     0.900000E-01   1.00800           0
      4243 MEMB     33       DPPC     H15S     HAL2     0.900000E-01   1.00800           0
      4244 MEMB     33       DPPC     C216     CTL3    -0.270000       12.0110           0
      4245 MEMB     33       DPPC     H16R     HAL3     0.900000E-01   1.00800           0
      4246 MEMB     33       DPPC     H16S     HAL3     0.900000E-01   1.00800           0
      4247 MEMB     33       DPPC     H16T     HAL3     0.900000E-01   1.00800           0
      4248 MEMB     33       DPPC     C33      CTL2    -0.180000       12.0110           0
      4249 MEMB     33       DPPC     H3X      HAL2     0.900000E-01   1.00800           0
      4250 MEMB     33       DPPC     H3Y      HAL2     0.900000E-01   1.00800           0
      4251 MEMB     33       DPPC     C34      CTL2    -0.180000       12.0110           0
      4252 MEMB     33       DPPC     H4X      HAL2     0.900000E-01   1.00800           0
      4253 MEMB     33       DPPC     H4Y      HAL2     0.900000E-01   1.00800           0
      4254 MEMB     33       DPPC     C35      CTL2    -0.180000       12.0110           0
      4255 MEMB     33       DPPC     H5X      HAL2     0.900000E-01   1.00800           0
      4256 MEMB     33       DPPC     H5Y      HAL2     0.900000E-01   1.00800           0
      4257 MEMB     33       DPPC     C36      CTL2    -0.180000       12.0110           0
      4258 MEMB     33       DPPC     H6X      HAL2     0.900000E-01   1.00800           0
      4259 MEMB     33       DPPC     H6Y      HAL2     0.900000E-01   1.00800           0
      4260 MEMB     33       DPPC     C37      CTL2    -0.180000       12.0110           0
      4261 MEMB     33       DPPC     H7X      HAL2     0.900000E-01   1.00800           0
      4262 MEMB     33       DPPC     H7Y      HAL2     0.900000E-01   1.00800           0
      4263 MEMB     33       DPPC     C38      CTL2    -0.180000       12.0110           0
      4264 MEMB     33       DPPC     H8X      HAL2     0.900000E-01   1.00800           0
      4265 MEMB     33       DPPC     H8Y      HAL2     0.900000E-01   1.00800           0
      4266 MEMB     33       DPPC     C39      CTL2    -0.180000       12.0110           0
      4267 MEMB     33       DPPC     H9X      HAL2     0.900000E-01   1.00800           0
      4268 MEMB     33       DPPC     H9Y      HAL2     0.900000E-01   1.00800           0
      4269 MEMB     33       DPPC     C310     CTL2    -0.180000       12.0110           0
      4270 MEMB     33       DPPC     H10X     HAL2     0.900000E-01   1.00800           0
      4271 MEMB     33       DPPC     H10Y     HAL2     0.900000E-01   1.00800           0
      4272 MEMB     33       DPPC     C311     CTL2    -0.180000       12.0110           0
      4273 MEMB     33       DPPC     H11X     HAL2     0.900000E-01   1.00800           0
      4274 MEMB     33       DPPC     H11Y     HAL2     0.900000E-01   1.00800           0
      4275 MEMB     33       DPPC     C312     CTL2    -0.180000       12.0110           0
      4276 MEMB     33       DPPC     H12X     HAL2     0.900000E-01   1.00800           0
      4277 MEMB     33       DPPC     H12Y     HAL2     0.900000E-01   1.00800           0
      4278 MEMB     33       DPPC     C313     CTL2    -0.180000       12.0110           0
      4279 MEMB     33       DPPC     H13X     HAL2     0.900000E-01   1.00800           0
      4280 MEMB     33       DPPC     H13Y     HAL2     0.900000E-01   1.00800           0
      4281 MEMB     33       DPPC     C314     CTL2    -0.180000       12.0110           0
      4282 MEMB     33       DPPC     H14X     HAL2     0.900000E-01   1.00800           0
      4283 MEMB     33       DPPC     H14Y     HAL2     0.900000E-01   1.00800           0
      4284 MEMB     33       DPPC     C315     CTL2    -0.180000       12.0110           0
      4285 MEMB     33       DPPC     H15X     HAL2     0.900000E-01   1.00800           0
      4286 MEMB     33       DPPC     H15Y     HAL2     0.900000E-01   1.00800           0
      4287 MEMB     33       DPPC     C316     CTL3    -0.270000       12.0110           0
      4288 MEMB     33       DPPC     H16X     HAL3     0.900000E-01   1.00800           0
      4289 MEMB     33       DPPC     H16Y     HAL3     0.900000E-01   1.00800           0
      4290 MEMB     33       DPPC     H16Z     HAL3     0.900000E-01   1.00800           0
      4291 MEMB     34       DPPC     N        NTL     -0.600000       14.0070           0
      4292 MEMB     34       DPPC     C13      CTL5    -0.350000       12.0110           0
      4293 MEMB     34       DPPC     H13A     HL       0.250000       1.00800           0
      4294 MEMB     34       DPPC     H13B     HL       0.250000       1.00800           0
      4295 MEMB     34       DPPC     H13C     HL       0.250000       1.00800           0
      4296 MEMB     34       DPPC     C14      CTL5    -0.350000       12.0110           0
      4297 MEMB     34       DPPC     H14A     HL       0.250000       1.00800           0
      4298 MEMB     34       DPPC     H14B     HL       0.250000       1.00800           0
      4299 MEMB     34       DPPC     H14C     HL       0.250000       1.00800           0
      4300 MEMB     34       DPPC     C15      CTL5    -0.350000       12.0110           0
      4301 MEMB     34       DPPC     H15A     HL       0.250000       1.00800           0
      4302 MEMB     34       DPPC     H15B     HL       0.250000       1.00800           0
      4303 MEMB     34       DPPC     H15C     HL       0.250000       1.00800           0
      4304 MEMB     34       DPPC     C12      CTL2    -0.100000       12.0110           0
      4305 MEMB     34       DPPC     H12A     HL       0.250000       1.00800           0
      4306 MEMB     34       DPPC     H12B     HL       0.250000       1.00800           0
      4307 MEMB     34       DPPC     C11      CTL2    -0.800000E-01   12.0110           0
      4308 MEMB     34       DPPC     H11A     HAL2     0.900000E-01   1.00800           0
      4309 MEMB     34       DPPC     H11B     HAL2     0.900000E-01   1.00800           0
      4310 MEMB     34       DPPC     P        PL       1.500000       30.9740           0
      4311 MEMB     34       DPPC     O13      O2L     -0.780000       15.9994           0
      4312 MEMB     34       DPPC     O14      O2L     -0.780000       15.9994           0
      4313 MEMB     34       DPPC     O11      OSLP    -0.570000       15.9994           0
      4314 MEMB     34       DPPC     O12      OSLP    -0.570000       15.9994           0
      4315 MEMB     34       DPPC     C1       CTL2    -0.800000E-01   12.0110           0
      4316 MEMB     34       DPPC     HA       HAL2     0.900000E-01   1.00800           0
      4317 MEMB     34       DPPC     HB       HAL2     0.900000E-01   1.00800           0
      4318 MEMB     34       DPPC     C2       CTL1     0.170000       12.0110           0
      4319 MEMB     34       DPPC     HS       HAL1     0.900000E-01   1.00800           0
      4320 MEMB     34       DPPC     O21      OSL     -0.490000       15.9994           0
      4321 MEMB     34       DPPC     C21      CL       0.900000       12.0110           0
      4322 MEMB     34       DPPC     O22      OBL     -0.630000       15.9994           0
      4323 MEMB     34       DPPC     C22      CTL2    -0.220000       12.0110           0
      4324 MEMB     34       DPPC     H2R      HAL2     0.900000E-01   1.00800           0
      4325 MEMB     34       DPPC     H2S      HAL2     0.900000E-01   1.00800           0
      4326 MEMB     34       DPPC     C3       CTL2     0.800000E-01   12.0110           0
      4327 MEMB     34       DPPC     HX       HAL2     0.900000E-01   1.00800           0
      4328 MEMB     34       DPPC     HY       HAL2     0.900000E-01   1.00800           0
      4329 MEMB     34       DPPC     O31      OSL     -0.490000       15.9994           0
      4330 MEMB     34       DPPC     C31      CL       0.900000       12.0110           0
      4331 MEMB     34       DPPC     O32      OBL     -0.630000       15.9994           0
      4332 MEMB     34       DPPC     C32      CTL2    -0.220000       12.0110           0
      4333 MEMB     34       DPPC     H2X      HAL2     0.900000E-01   1.00800           0
      4334 MEMB     34       DPPC     H2Y      HAL2     0.900000E-01   1.00800           0
      4335 MEMB     34       DPPC     C23      CTL2    -0.180000       12.0110           0
      4336 MEMB     34       DPPC     H3R      HAL2     0.900000E-01   1.00800           0
      4337 MEMB     34       DPPC     H3S      HAL2     0.900000E-01   1.00800           0
      4338 MEMB     34       DPPC     C24      CTL2    -0.180000       12.0110           0
      4339 MEMB     34       DPPC     H4R      HAL2     0.900000E-01   1.00800           0
      4340 MEMB     34       DPPC     H4S      HAL2     0.900000E-01   1.00800           0
      4341 MEMB     34       DPPC     C25      CTL2    -0.180000       12.0110           0
      4342 MEMB     34       DPPC     H5R      HAL2     0.900000E-01   1.00800           0
      4343 MEMB     34       DPPC     H5S      HAL2     0.900000E-01   1.00800           0
      4344 MEMB     34       DPPC     C26      CTL2    -0.180000       12.0110           0
      4345 MEMB     34       DPPC     H6R      HAL2     0.900000E-01   1.00800           0
      4346 MEMB     34       DPPC     H6S      HAL2     0.900000E-01   1.00800           0
      4347 MEMB     34       DPPC     C27      CTL2    -0.180000       12.0110           0
      4348 MEMB     34       DPPC     H7R      HAL2     0.900000E-01   1.00800           0
      4349 MEMB     34       DPPC     H7S      HAL2     0.900000E-01   1.00800           0
      4350 MEMB     34       DPPC     C28      CTL2    -0.180000       12.0110           0
      4351 MEMB     34       DPPC     H8R      HAL2     0.900000E-01   1.00800           0
      4352 MEMB     34       DPPC     H8S      HAL2     0.900000E-01   1.00800           0
      4353 MEMB     34       DPPC     C29      CTL2    -0.180000       12.0110           0
      4354 MEMB     34       DPPC     H9R      HAL2     0.900000E-01   1.00800           0
      4355 MEMB     34       DPPC     H9S      HAL2     0.900000E-01   1.00800           0
      4356 MEMB     34       DPPC     C210     CTL2    -0.180000       12.0110           0
      4357 MEMB     34       DPPC     H10R     HAL2     0.900000E-01   1.00800           0
      4358 MEMB     34       DPPC     H10S     HAL2     0.900000E-01   1.00800           0
      4359 MEMB     34       DPPC     C211     CTL2    -0.180000       12.0110           0
      4360 MEMB     34       DPPC     H11R     HAL2     0.900000E-01   1.00800           0
      4361 MEMB     34       DPPC     H11S     HAL2     0.900000E-01   1.00800           0
      4362 MEMB     34       DPPC     C212     CTL2    -0.180000       12.0110           0
      4363 MEMB     34       DPPC     H12R     HAL2     0.900000E-01   1.00800           0
      4364 MEMB     34       DPPC     H12S     HAL2     0.900000E-01   1.00800           0
      4365 MEMB     34       DPPC     C213     CTL2    -0.180000       12.0110           0
      4366 MEMB     34       DPPC     H13R     HAL2     0.900000E-01   1.00800           0
      4367 MEMB     34       DPPC     H13S     HAL2     0.900000E-01   1.00800           0
      4368 MEMB     34       DPPC     C214     CTL2    -0.180000       12.0110           0
      4369 MEMB     34       DPPC     H14R     HAL2     0.900000E-01   1.00800           0
      4370 MEMB     34       DPPC     H14S     HAL2     0.900000E-01   1.00800           0
      4371 MEMB     34       DPPC     C215     CTL2    -0.180000       12.0110           0
      4372 MEMB     34       DPPC     H15R     HAL2     0.900000E-01   1.00800           0
      4373 MEMB     34       DPPC     H15S     HAL2     0.900000E-01   1.00800           0
      4374 MEMB     34       DPPC     C216     CTL3    -0.270000       12.0110           0
      4375 MEMB     34       DPPC     H16R     HAL3     0.900000E-01   1.00800           0
      4376 MEMB     34       DPPC     H16S     HAL3     0.900000E-01   1.00800           0
      4377 MEMB     34       DPPC     H16T     HAL3     0.900000E-01   1.00800           0
      4378 MEMB     34       DPPC     C33      CTL2    -0.180000       12.0110           0
      4379 MEMB     34       DPPC     H3X      HAL2     0.900000E-01   1.00800           0
      4380 MEMB     34       DPPC     H3Y      HAL2     0.900000E-01   1.00800           0
      4381 MEMB     34       DPPC     C34      CTL2    -0.180000       12.0110           0
      4382 MEMB     34       DPPC     H4X      HAL2     0.900000E-01   1.00800           0
      4383 MEMB     34       DPPC     H4Y      HAL2     0.900000E-01   1.00800           0
      4384 MEMB     34       DPPC     C35      CTL2    -0.180000       12.0110           0
      4385 MEMB     34       DPPC     H5X      HAL2     0.900000E-01   1.00800           0
      4386 MEMB     34       DPPC     H5Y      HAL2     0.900000E-01   1.00800           0
      4387 MEMB     34       DPPC     C36      CTL2    -0.180000       12.0110           0
      4388 MEMB     34       DPPC     H6X      HAL2     0.900000E-01   1.00800           0
      4389 MEMB     34       DPPC     H6Y      HAL2     0.900000E-01   1.00800           0
      4390 MEMB     34       DPPC     C37      CTL2    -0.180000       12.0110           0
      4391 MEMB     34       DPPC     H7X      HAL2     0.900000E-01   1.00800           0
      4392 MEMB     34       DPPC     H7Y      HAL2     0.900000E-01   1.00800           0
      4393 MEMB     34       DPPC     C38      CTL2    -0.180000       12.0110           0
      4394 MEMB     34       DPPC     H8X      HAL2     0.900000E-01   1.00800           0
      4395 MEMB     34       DPPC     H8Y      HAL2     0.900000E-01   1.00800           0
      4396 MEMB     34       DPPC     C39      CTL2    -0.180000       12.0110           0
      4397 MEMB     34       DPPC     H9X      HAL2     0.900000E-01   1.00800           0
      4398 MEMB     34       DPPC     H9Y      HAL2     0.900000E-01   1.00800           0
      4399 MEMB     34       DPPC     C310     CTL2    -0.180000       12.0110           0
      4400 MEMB     34       DPPC     H10X     HAL2     0.900000E-01   1.00800           0
      4401 MEMB     34       DPPC     H10Y     HAL2     0.900000E-01   1.00800           0
      4402 MEMB     34       DPPC     C311     CTL2    -0.180000       12.0110           0
      4403 MEMB     34       DPPC     H11X     HAL2     0.900000E-01   1.00800           0
      4404 MEMB     34       DPPC     H11Y     HAL2     0.900000E-01   1.00800           0
      4405 MEMB     34       DPPC     C312     CTL2    -0.180000       12.0110           0
      4406 MEMB     34       DPPC     H12X     HAL2     0.900000E-01   1.00800           0
      4407 MEMB     34       DPPC     H12Y     HAL2     0.900000E-01   1.00800           0
      4408 MEMB     34       DPPC     C313     CTL2    -0.180000       12.0110           0
      4409 MEMB     34       DPPC     H13X     HAL2     0.900000E-01   1.00800           0
      4410 MEMB     34       DPPC     H13Y     HAL2     0.900000E-01   1.00800           0
      4411 MEMB     34       DPPC     C314     CTL2    -0.180000       12.0110           0
      4412 MEMB     34       DPPC     H14X     HAL2     0.900000E-01   1.00800           0
      4413 MEMB     34       DPPC     H14Y     HAL2     0.900000E-01   1.00800           0
      4414 MEMB     34       DPPC     C315     CTL2    -0.180000       12.0110           0
      4415 MEMB     34       DPPC     H15X     HAL2     0.900000E-01   1.00800           0
      4416 MEMB     34       DPPC     H15Y     HAL2     0.900000E-01   1.00800           0
      4417 MEMB     34       DPPC     C316     CTL3    -0.270000       12.0110           0
      4418 MEMB     34       DPPC     H16X     HAL3     0.900000E-01   1.00800           0
      4419 MEMB     34       DPPC     H16Y     HAL3     0.900000E-01   1.00800           0
      4420 MEMB     34       DPPC     H16Z     HAL3     0.900000E-01   1.00800           0
      4421 MEMB     35       DPPC     N        NTL     -0.600000       14.0070           0
      4422 MEMB     35       DPPC     C13      CTL5    -0.350000       12.0110           0
      4423 MEMB     35       DPPC     H13A     HL       0.250000       1.00800           0
      4424 MEMB     35       DPPC     H13B     HL       0.250000       1.00800           0
      4425 MEMB     35       DPPC     H13C     HL       0.250000       1.00800           0
      4426 MEMB     35       DPPC     C14      CTL5    -0.350000       12.0110           0
      4427 MEMB     35       DPPC     H14A     HL       0.250000       1.00800           0
      4428 MEMB     35       DPPC     H14B     HL       0.250000       1.00800           0
      4429 MEMB     35       DPPC     H14C     HL       0.250000       1.00800           0
      4430 MEMB     35       DPPC     C15      CTL5    -0.350000       12.0110           0
      4431 MEMB     35       DPPC     H15A     HL       0.250000       1.00800           0
      4432 MEMB     35       DPPC     H15B     HL       0.250000       1.00800           0
      4433 MEMB     35       DPPC     H15C     HL       0.250000       1.00800           0
      4434 MEMB     35       DPPC     C12      CTL2    -0.100000       12.0110           0
      4435 MEMB     35       DPPC     H12A     HL       0.250000       1.00800           0
      4436 MEMB     35       DPPC     H12B     HL       0.250000       1.00800           0
      4437 MEMB     35       DPPC     C11      CTL2    -0.800000E-01   12.0110           0
      4438 MEMB     35       DPPC     H11A     HAL2     0.900000E-01   1.00800           0
      4439 MEMB     35       DPPC     H11B     HAL2     0.900000E-01   1.00800           0
      4440 MEMB     35       DPPC     P        PL       1.500000       30.9740           0
      4441 MEMB     35       DPPC     O13      O2L     -0.780000       15.9994           0
      4442 MEMB     35       DPPC     O14      O2L     -0.780000       15.9994           0
      4443 MEMB     35       DPPC     O11      OSLP    -0.570000       15.9994           0
      4444 MEMB     35       DPPC     O12      OSLP    -0.570000       15.9994           0
      4445 MEMB     35       DPPC     C1       CTL2    -0.800000E-01   12.0110           0
      4446 MEMB     35       DPPC     HA       HAL2     0.900000E-01   1.00800           0
      4447 MEMB     35       DPPC     HB       HAL2     0.900000E-01   1.00800           0
      4448 MEMB     35       DPPC     C2       CTL1     0.170000       12.0110           0
      4449 MEMB     35       DPPC     HS       HAL1     0.900000E-01   1.00800           0
      4450 MEMB     35       DPPC     O21      OSL     -0.490000       15.9994           0
      4451 MEMB     35       DPPC     C21      CL       0.900000       12.0110           0
      4452 MEMB     35       DPPC     O22      OBL     -0.630000       15.9994           0
      4453 MEMB     35       DPPC     C22      CTL2    -0.220000       12.0110           0
      4454 MEMB     35       DPPC     H2R      HAL2     0.900000E-01   1.00800           0
      4455 MEMB     35       DPPC     H2S      HAL2     0.900000E-01   1.00800           0
      4456 MEMB     35       DPPC     C3       CTL2     0.800000E-01   12.0110           0
      4457 MEMB     35       DPPC     HX       HAL2     0.900000E-01   1.00800           0
      4458 MEMB     35       DPPC     HY       HAL2     0.900000E-01   1.00800           0
      4459 MEMB     35       DPPC     O31      OSL     -0.490000       15.9994           0
      4460 MEMB     35       DPPC     C31      CL       0.900000       12.0110           0
      4461 MEMB     35       DPPC     O32      OBL     -0.630000       15.9994           0
      4462 MEMB     35       DPPC     C32      CTL2    -0.220000       12.0110           0
      4463 MEMB     35       DPPC     H2X      HAL2     0.900000E-01   1.00800           0
      4464 MEMB     35       DPPC     H2Y      HAL2     0.900000E-01   1.00800           0
      4465 MEMB     35       DPPC     C23      CTL2    -0.180000       12.0110           0
      4466 MEMB     35       DPPC     H3R      HAL2     0.900000E-01   1.00800           0
      4467 MEMB     35       DPPC     H3S      HAL2     0.900000E-01   1.00800           0
      4468 MEMB     35       DPPC     C24      CTL2    -0.180000       12.0110           0
      4469 MEMB     35       DPPC     H4R      HAL2     0.900000E-01   1.00800           0
      4470 MEMB     35       DPPC     H4S      HAL2     0.900000E-01   1.00800           0
      4471 MEMB     35       DPPC     C25      CTL2    -0.180000       12.0110           0
      4472 MEMB     35       DPPC     H5R      HAL2     0.900000E-01   1.00800           0
      4473 MEMB     35       DPPC     H5S      HAL2     0.900000E-01   1.00800           0
      4474 MEMB     35       DPPC     C26      CTL2    -0.180000       12.0110           0
      4475 MEMB     35       DPPC     H6R      HAL2     0.900000E-01   1.00800           0
      4476 MEMB     35       DPPC     H6S      HAL2     0.900000E-01   1.00800           0
      4477 MEMB     35       DPPC     C27      CTL2    -0.180000       12.0110           0
      4478 MEMB     35       DPPC     H7R      HAL2     0.900000E-01   1.00800           0
      4479 MEMB     35       DPPC     H7S      HAL2     0.900000E-01   1.00800           0
      4480 MEMB     35       DPPC     C28      CTL2    -0.180000       12.0110           0
      4481 MEMB     35       DPPC     H8R      HAL2     0.900000E-01   1.00800           0
      4482 MEMB     35       DPPC     H8S      HAL2     0.900000E-01   1.00800           0
      4483 MEMB     35       DPPC     C29      CTL2    -0.180000       12.0110           0
      4484 MEMB     35       DPPC     H9R      HAL2     0.900000E-01   1.00800           0
      4485 MEMB     35       DPPC     H9S      HAL2     0.900000E-01   1.00800           0
      4486 MEMB     35       DPPC     C210     CTL2    -0.180000       12.0110           0
      4487 MEMB     35       DPPC     H10R     HAL2     0.900000E-01   1.00800           0
      4488 MEMB     35       DPPC     H10S     HAL2     0.900000E-01   1.00800           0
      4489 MEMB     35       DPPC     C211     CTL2    -0.180000       12.0110           0
      4490 MEMB     35       DPPC     H11R     HAL2     0.900000E-01   1.00800           0
      4491 MEMB     35       DPPC     H11S     HAL2     0.900000E-01   1.00800           0
      4492 MEMB     35       DPPC     C212     CTL2    -0.180000       12.0110           0
      4493 MEMB     35       DPPC     H12R     HAL2     0.900000E-01   1.00800           0
      4494 MEMB     35       DPPC     H12S     HAL2     0.900000E-01   1.00800           0
      4495 MEMB     35       DPPC     C213     CTL2    -0.180000       12.0110           0
      4496 MEMB     35       DPPC     H13R     HAL2     0.900000E-01   1.00800           0
      4497 MEMB     35       DPPC     H13S     HAL2     0.900000E-01   1.00800           0
      4498 MEMB     35       DPPC     C214     CTL2    -0.180000       12.0110           0
      4499 MEMB     35       DPPC     H14R     HAL2     0.900000E-01   1.00800           0
      4500 MEMB     35       DPPC     H14S     HAL2     0.900000E-01   1.00800           0
      4501 MEMB     35       DPPC     C215     CTL2    -0.180000       12.0110           0
      4502 MEMB     35       DPPC     H15R     HAL2     0.900000E-01   1.00800           0
      4503 MEMB     35       DPPC     H15S     HAL2     0.900000E-01   1.00800           0
      4504 MEMB     35       DPPC     C216     CTL3    -0.270000       12.0110           0
      4505 MEMB     35       DPPC     H16R     HAL3     0.900000E-01   1.00800           0
      4506 MEMB     35       DPPC     H16S     HAL3     0.900000E-01   1.00800           0
      4507 MEMB     35       DPPC     H16T     HAL3     0.900000E-01   1.00800           0
      4508 MEMB     35       DPPC     C33      CTL2    -0.180000       12.0110           0
      4509 MEMB     35       DPPC     H3X      HAL2     0.900000E-01   1.00800           0
      4510 MEMB     35       DPPC     H3Y      HAL2     0.900000E-01   1.00800           0
      4511 MEMB     35       DPPC     C34      CTL2    -0.180000       12.0110           0
      4512 MEMB     35       DPPC     H4X      HAL2     0.900000E-01   1.00800           0
      4513 MEMB     35       DPPC     H4Y      HAL2     0.900000E-01   1.00800           0
      4514 MEMB     35       DPPC     C35      CTL2    -0.180000       12.0110           0
      4515 MEMB     35       DPPC     H5X      HAL2     0.900000E-01   1.00800           0
      4516 MEMB     35       DPPC     H5Y      HAL2     0.900000E-01   1.00800           0
      4517 MEMB     35       DPPC     C36      CTL2    -0.180000       12.0110           0
      4518 MEMB     35       DPPC     H6X      HAL2     0.900000E-01   1.00800           0
      4519 MEMB     35       DPPC     H6Y      HAL2     0.900000E-01   1.00800           0
      4520 MEMB     35       DPPC     C37      CTL2    -0.180000       12.0110           0
      4521 MEMB     35       DPPC     H7X      HAL2     0.900000E-01   1.00800           0
      4522 MEMB     35       DPPC     H7Y      HAL2     0.900000E-01   1.00800           0
      4523 MEMB     35       DPPC     C38      CTL2    -0.180000       12.0110           0
      4524 MEMB     35       DPPC     H8X      HAL2     0.900000E-01   1.00800           0
      4525 MEMB     35       DPPC     H8Y      HAL2     0.900000E-01   1.00800           0
      4526 MEMB     35       DPPC     C39      CTL2    -0.180000       12.0110           0
      4527 MEMB     35       DPPC     H9X      HAL2     0.900000E-01   1.00800           0
      4528 MEMB     35       DPPC     H9Y      HAL2     0.900000E-01   1.00800           0
      4529 MEMB     35       DPPC     C310     CTL2    -0.180000       12.0110           0
      4530 MEMB     35       DPPC     H10X     HAL2     0.900000E-01   1.00800           0
      4531 MEMB     35       DPPC     H10Y     HAL2     0.900000E-01   1.00800           0
      4532 MEMB     35       DPPC     C311     CTL2    -0.180000       12.0110           0
      4533 MEMB     35       DPPC     H11X     HAL2     0.900000E-01   1.00800           0
      4534 MEMB     35       DPPC     H11Y     HAL2     0.900000E-01   1.00800           0
      4535 MEMB     35       DPPC     C312     CTL2    -0.180000       12.0110           0
      4536 MEMB     35       DPPC     H12X     HAL2     0.900000E-01   1.00800           0
      4537 MEMB     35       DPPC     H12Y     HAL2     0.900000E-01   1.00800           0
      4538 MEMB     35       DPPC     C313     CTL2    -0.180000       12.0110           0
      4539 MEMB     35       DPPC     H13X     HAL2     0.900000E-01   1.00800           0
      4540 MEMB     35       DPPC     H13Y     HAL2     0.900000E-01   1.00800           0
      4541 MEMB     35       DPPC     C314     CTL2    -0.180000       12.0110           0
      4542 MEMB     35       DPPC     H14X     HAL2     0.900000E-01   1.00800           0
      4543 MEMB     35       DPPC     H14Y     HAL2     0.900000E-01   1.00800           0
      4544 MEMB     35       DPPC     C315     CTL2    -0.180000       12.0110           0
      4545 MEMB     35       DPPC     H15X     HAL2     0.900000E-01   1.00800           0
      4546 MEMB     35       DPPC     H15Y     HAL2     0.900000E-01   1.00800           0
      4547 MEMB     35       DPPC     C316     CTL3    -0.270000       12.0110           0
      4548 MEMB     35       DPPC     H16X     HAL3     0.900000E-01   1.00800           0
      4549 MEMB     35       DPPC     H16Y     HAL3     0.900000E-01   1.00800           0
      4550 MEMB     35       DPPC     H16Z     HAL3     0.900000E-01   1.00800           0
      4551 MEMB     36       DPPC     N        NTL     -0.600000       14.0070           0
      4552 MEMB     36       DPPC     C13      CTL5    -0.350000       12.0110           0
      4553 MEMB     36       DPPC     H13A     HL       0.250000       1.00800           0
      4554 MEMB     36       DPPC     H13B     HL       0.250000       1.00800           0
      4555 MEMB     36       DPPC     H13C     HL       0.250000       1.00800           0
      4556 MEMB     36       DPPC     C14      CTL5    -0.350000       12.0110           0
      4557 MEMB     36       DPPC     H14A     HL       0.250000       1.00800           0
      4558 MEMB     36       DPPC     H14B     HL       0.250000       1.00800           0
      4559 MEMB     36       DPPC     H14C     HL       0.250000       1.00800           0
      4560 MEMB     36       DPPC     C15      CTL5    -0.350000       12.0110           0
      4561 MEMB     36       DPPC     H15A     HL       0.250000       1.00800           0
      4562 MEMB     36       DPPC     H15B     HL       0.250000       1.00800           0
      4563 MEMB     36       DPPC     H15C     HL       0.250000       1.00800           0
      4564 MEMB     36       DPPC     C12      CTL2    -0.100000       12.0110           0
      4565 MEMB     36       DPPC     H12A     HL       0.250000       1.00800           0
      4566 MEMB     36       DPPC     H12B     HL       0.250000       1.00800           0
      4567 MEMB     36       DPPC     C11      CTL2    -0.800000E-01   12.0110           0
      4568 MEMB     36       DPPC     H11A     HAL2     0.900000E-01   1.00800           0
      4569 MEMB     36       DPPC     H11B     HAL2     0.900000E-01   1.00800           0
      4570 MEMB     36       DPPC     P        PL       1.500000       30.9740           0
      4571 MEMB     36       DPPC     O13      O2L     -0.780000       15.9994           0
      4572 MEMB     36       DPPC     O14      O2L     -0.780000       15.9994           0
      4573 MEMB     36       DPPC     O11      OSLP    -0.570000       15.9994           0
      4574 MEMB     36       DPPC     O12      OSLP    -0.570000       15.9994           0
      4575 MEMB     36       DPPC     C1       CTL2    -0.800000E-01   12.0110           0
      4576 MEMB     36       DPPC     HA       HAL2     0.900000E-01   1.00800           0
      4577 MEMB     36       DPPC     HB       HAL2     0.900000E-01   1.00800           0
      4578 MEMB     36       DPPC     C2       CTL1     0.170000       12.0110           0
      4579 MEMB     36       DPPC     HS       HAL1     0.900000E-01   1.00800           0
      4580 MEMB     36       DPPC     O21      OSL     -0.490000       15.9994           0
      4581 MEMB     36       DPPC     C21      CL       0.900000       12.0110           0
      4582 MEMB     36       DPPC     O22      OBL     -0.630000       15.9994           0
      4583 MEMB     36       DPPC     C22      CTL2    -0.220000       12.0110           0
      4584 MEMB     36       DPPC     H2R      HAL2     0.900000E-01   1.00800           0
      4585 MEMB     36       DPPC     H2S      HAL2     0.900000E-01   1.00800           0
      4586 MEMB     36       DPPC     C3       CTL2     0.800000E-01   12.0110           0
      4587 MEMB     36       DPPC     HX       HAL2     0.900000E-01   1.00800           0
      4588 MEMB     36       DPPC     HY       HAL2     0.900000E-01   1.00800           0
      4589 MEMB     36       DPPC     O31      OSL     -0.490000       15.9994           0
      4590 MEMB     36       DPPC     C31      CL       0.900000       12.0110           0
      4591 MEMB     36       DPPC     O32      OBL     -0.630000       15.9994           0
      4592 MEMB     36       DPPC     C32      CTL2    -0.220000       12.0110           0
      4593 MEMB     36       DPPC     H2X      HAL2     0.900000E-01   1.00800           0
      4594 MEMB     36       DPPC     H2Y      HAL2     0.900000E-01   1.00800           0
      4595 MEMB     36       DPPC     C23      CTL2    -0.180000       12.0110           0
      4596 MEMB     36       DPPC     H3R      HAL2     0.900000E-01   1.00800           0
      4597 MEMB     36       DPPC     H3S      HAL2     0.900000E-01   1.00800           0
      4598 MEMB     36       DPPC     C24      CTL2    -0.180000       12.0110           0
      4599 MEMB     36       DPPC     H4R      HAL2     0.900000E-01   1.00800           0
      4600 MEMB     36       DPPC     H4S      HAL2     0.900000E-01   1.00800           0
      4601 MEMB     36       DPPC     C25      CTL2    -0.180000       12.0110           0
      4602 MEMB     36       DPPC     H5R      HAL2     0.900000E-01   1.00800           0
      4603 MEMB     36       DPPC     H5S      HAL2     0.900000E-01   1.00800           0
      4604 MEMB     36       DPPC     C26      CTL2    -0.180000       12.0110           0
      4605 MEMB     36       DPPC     H6R      HAL2     0.900000E-01   1.00800           0
      4606 MEMB     36       DPPC     H6S      HAL2     0.900000E-01   1.00800           0
      4607 MEMB     36       DPPC     C27      CTL2    -0.180000       12.0110           0
      4608 MEMB     36       DPPC     H7R      HAL2     0.900000E-01   1.00800           0
      4609 MEMB     36       DPPC     H7S      HAL2     0.900000E-01   1.00800           0
      4610 MEMB     36       DPPC     C28      CTL2    -0.180000       12.0110           0
      4611 MEMB     36       DPPC     H8R      HAL2     0.900000E-01   1.00800           0
      4612 MEMB     36       DPPC     H8S      HAL2     0.900000E-01   1.00800           0
      4613 MEMB     36       DPPC     C29      CTL2    -0.180000       12.0110           0
      4614 MEMB     36       DPPC     H9R      HAL2     0.900000E-01   1.00800           0
      4615 MEMB     36       DPPC     H9S      HAL2     0.900000E-01   1.00800           0
      4616 MEMB     36       DPPC     C210     CTL2    -0.180000       12.0110           0
      4617 MEMB     36       DPPC     H10R     HAL2     0.900000E-01   1.00800           0
      4618 MEMB     36       DPPC     H10S     HAL2     0.900000E-01   1.00800           0
      4619 MEMB     36       DPPC     C211     CTL2    -0.180000       12.0110           0
      4620 MEMB     36       DPPC     H11R     HAL2     0.900000E-01   1.00800           0
      4621 MEMB     36       DPPC     H11S     HAL2     0.900000E-01   1.00800           0
      4622 MEMB     36       DPPC     C212     CTL2    -0.180000       12.0110           0
      4623 MEMB     36       DPPC     H12R     HAL2     0.900000E-01   1.00800           0
      4624 MEMB     36       DPPC     H12S     HAL2     0.900000E-01   1.00800           0
      4625 MEMB     36       DPPC     C213     CTL2    -0.180000       12.0110           0
      4626 MEMB     36       DPPC     H13R     HAL2     0.900000E-01   1.00800           0
      4627 MEMB     36       DPPC     H13S     HAL2     0.900000E-01   1.00800           0
      4628 MEMB     36       DPPC     C214     CTL2    -0.180000       12.0110           0
      4629 MEMB     36       DPPC     H14R     HAL2     0.900000E-01   1.00800           0
      4630 MEMB     36       DPPC     H14S     HAL2     0.900000E-01   1.00800           0
      4631 MEMB     36       DPPC     C215     CTL2    -0.180000       12.0110           0
      4632 MEMB     36       DPPC     H15R     HAL2     0.900000E-01   1.00800           0
      4633 MEMB     36       DPPC     H15S     HAL2     0.900000E-01   1.00800           0
      4634 MEMB     36       DPPC     C216     CTL3    -0.270000       12.0110           0
      4635 MEMB     36       DPPC     H16R     HAL3     0.900000E-01   1.00800           0
      4636 MEMB     36       DPPC     H16S     HAL3     0.900000E-01   1.00800           0
      4637 MEMB     36       DPPC     H16T     HAL3     0.900000E-01   1.00800           0
      4638 MEMB     36       DPPC     C33      CTL2    -0.180000       12.0110           0
      4639 MEMB     36       DPPC     H3X      HAL2     0.900000E-01   1.00800           0
      4640 MEMB     36       DPPC     H3Y      HAL2     0.900000E-01   1.00800           0
      4641 MEMB     36       DPPC     C34      CTL2    -0.180000       12.0110           0
      4642 MEMB     36       DPPC     H4X      HAL2     0.900000E-01   1.00800           0
      4643 MEMB     36       DPPC     H4Y      HAL2     0.900000E-01   1.00800           0
      4644 MEMB     36       DPPC     C35      CTL2    -0.180000       12.0110           0
      4645 MEMB     36       DPPC     H5X      HAL2     0.900000E-01   1.00800           0
      4646 MEMB     36       DPPC     H5Y      HAL2     0.900000E-01   1.00800           0
      4647 MEMB     36       DPPC     C36      CTL2    -0.180000       12.0110           0
      4648 MEMB     36       DPPC     H6X      HAL2     0.900000E-01   1.00800           0
      4649 MEMB     36       DPPC     H6Y      HAL2     0.900000E-01   1.00800           0
      4650 MEMB     36       DPPC     C37      CTL2    -0.180000       12.0110           0
      4651 MEMB     36       DPPC     H7X      HAL2     0.900000E-01   1.00800           0
      4652 MEMB     36       DPPC     H7Y      HAL2     0.900000E-01   1.00800           0
      4653 MEMB     36       DPPC     C38      CTL2    -0.180000       12.0110           0
      4654 MEMB     36       DPPC     H8X      HAL2     0.900000E-01   1.00800           0
      4655 MEMB     36       DPPC     H8Y      HAL2     0.900000E-01   1.00800           0
      4656 MEMB     36       DPPC     C39      CTL2    -0.180000       12.0110           0
      4657 MEMB     36       DPPC     H9X      HAL2     0.900000E-01   1.00800           0
      4658 MEMB     36       DPPC     H9Y      HAL2     0.900000E-01   1.00800           0
      4659 MEMB     36       DPPC     C310     CTL2    -0.180000       12.0110           0
      4660 MEMB     36       DPPC     H10X     HAL2     0.900000E-01   1.00800           0
      4661 MEMB     36       DPPC     H10Y     HAL2     0.900000E-01   1.00800           0
      4662 MEMB     36       DPPC     C311     CTL2    -0.180000       12.0110           0
      4663 MEMB     36       DPPC     H11X     HAL2     0.900000E-01   1.00800           0
      4664 MEMB     36       DPPC     H11Y     HAL2     0.900000E-01   1.00800           0
      4665 MEMB     36       DPPC     C312     CTL2    -0.180000       12.0110           0
      4666 MEMB     36       DPPC     H12X     HAL2     0.900000E-01   1.00800           0
      4667 MEMB     36       DPPC     H12Y     HAL2     0.900000E-01   1.00800           0
      4668 MEMB     36       DPPC     C313     CTL2    -0.180000       12.0110           0
      4669 MEMB     36       DPPC     H13X     HAL2     0.900000E-01   1.00800           0
      4670 MEMB     36       DPPC     H13Y     HAL2     0.900000E-01   1.00800           0
      4671 MEMB     36       DPPC     C314     CTL2    -0.180000       12.0110           0
      4672 MEMB     36       DPPC     H14X     HAL2     0.900000E-01   1.00800           0
      4673 MEMB     36       DPPC     H14Y     HAL2     0.900000E-01   1.00800           0
      4674 MEMB     36       DPPC     C315     CTL2    -0.180000       12.0110           0
      4675 MEMB     36       DPPC     H15X     HAL2     0.900000E-01   1.00800           0
      4676 MEMB     36       DPPC     H15Y     HAL2     0.900000E-01   1.00800           0
      4677 MEMB     36       DPPC     C316     CTL3    -0.270000       12.0110           0
      4678 MEMB     36       DPPC     H16X     HAL3     0.900000E-01   1.00800           0
      4679 MEMB     36       DPPC     H16Y     HAL3     0.900000E-01   1.00800           0
      4680 MEMB     36       DPPC     H16Z     HAL3     0.900000E-01   1.00800           0
      4681 MEMB     37       DPPC     N        NTL     -0.600000       14.0070           0
      4682 MEMB     37       DPPC     C13      CTL5    -0.350000       12.0110           0
      4683 MEMB     37       DPPC     H13A     HL       0.250000       1.00800           0
      4684 MEMB     37       DPPC     H13B     HL       0.250000       1.00800           0
      4685 MEMB     37       DPPC     H13C     HL       0.250000       1.00800           0
      4686 MEMB     37       DPPC     C14      CTL5    -0.350000       12.0110           0
      4687 MEMB     37       DPPC     H14A     HL       0.250000       1.00800           0
      4688 MEMB     37       DPPC     H14B     HL       0.250000       1.00800           0
      4689 MEMB     37       DPPC     H14C     HL       0.250000       1.00800           0
      4690 MEMB     37       DPPC     C15      CTL5    -0.350000       12.0110           0
      4691 MEMB     37       DPPC     H15A     HL       0.250000       1.00800           0
      4692 MEMB     37       DPPC     H15B     HL       0.250000       1.00800           0
      4693 MEMB     37       DPPC     H15C     HL       0.250000       1.00800           0
      4694 MEMB     37       DPPC     C12      CTL2    -0.100000       12.0110           0
      4695 MEMB     37       DPPC     H12A     HL       0.250000       1.00800           0
      4696 MEMB     37       DPPC     H12B     HL       0.250000       1.00800           0
      4697 MEMB     37       DPPC     C11      CTL2    -0.800000E-01   12.0110           0
      4698 MEMB     37       DPPC     H11A     HAL2     0.900000E-01   1.00800           0
      4699 MEMB     37       DPPC     H11B     HAL2     0.900000E-01   1.00800           0
      4700 MEMB     37       DPPC     P        PL       1.500000       30.9740           0
      4701 MEMB     37       DPPC     O13      O2L     -0.780000       15.9994           0
      4702 MEMB     37       DPPC     O14      O2L     -0.780000       15.9994           0
      4703 MEMB     37       DPPC     O11      OSLP    -0.570000       15.9994           0
      4704 MEMB     37       DPPC     O12      OSLP    -0.570000       15.9994           0
      4705 MEMB     37       DPPC     C1       CTL2    -0.800000E-01   12.0110           0
      4706 MEMB     37       DPPC     HA       HAL2     0.900000E-01   1.00800           0
      4707 MEMB     37       DPPC     HB       HAL2     0.900000E-01   1.00800           0
      4708 MEMB     37       DPPC     C2       CTL1     0.170000       12.0110           0
      4709 MEMB     37       DPPC     HS       HAL1     0.900000E-01   1.00800           0
      4710 MEMB     37       DPPC     O21      OSL     -0.490000       15.9994           0
      4711 MEMB     37       DPPC     C21      CL       0.900000       12.0110           0
      4712 MEMB     37       DPPC     O22      OBL     -0.630000       15.9994           0
      4713 MEMB     37       DPPC     C22      CTL2    -0.220000       12.0110           0
      4714 MEMB     37       DPPC     H2R      HAL2     0.900000E-01   1.00800           0
      4715 MEMB     37       DPPC     H2S      HAL2     0.900000E-01   1.00800           0
      4716 MEMB     37       DPPC     C3       CTL2     0.800000E-01   12.0110           0
      4717 MEMB     37       DPPC     HX       HAL2     0.900000E-01   1.00800           0
      4718 MEMB     37       DPPC     HY       HAL2     0.900000E-01   1.00800           0
      4719 MEMB     37       DPPC     O31      OSL     -0.490000       15.9994           0
      4720 MEMB     37       DPPC     C31      CL       0.900000       12.0110           0
      4721 MEMB     37       DPPC     O32      OBL     -0.630000       15.9994           0
      4722 MEMB     37       DPPC     C32      CTL2    -0.220000       12.0110           0
      4723 MEMB     37       DPPC     H2X      HAL2     0.900000E-01   1.00800           0
      4724 MEMB     37       DPPC     H2Y      HAL2     0.900000E-01   1.00800           0
      4725 MEMB     37       DPPC     C23      CTL2    -0.180000       12.0110           0
      4726 MEMB     37       DPPC     H3R      HAL2     0.900000E-01   1.00800           0
      4727 MEMB     37       DPPC     H3S      HAL2     0.900000E-01   1.00800           0
      4728 MEMB     37       DPPC     C24      CTL2    -0.180000       12.0110           0
      4729 MEMB     37       DPPC     H4R      HAL2     0.900000E-01   1.00800           0
      4730 MEMB     37       DPPC     H4S      HAL2     0.900000E-01   1.00800           0
      4731 MEMB     37       DPPC     C25      CTL2    -0.180000       12.0110           0
      4732 MEMB     37       DPPC     H5R      HAL2     0.900000E-01   1.00800           0
      4733 MEMB     37       DPPC     H5S      HAL2     0.900000E-01   1.00800           0
      4734 MEMB     37       DPPC     C26      CTL2    -0.180000       12.0110           0
      4735 MEMB     37       DPPC     H6R      HAL2     0.900000E-01   1.00800           0
      4736 MEMB     37       DPPC     H6S      HAL2     0.900000E-01   1.00800           0
      4737 MEMB     37       DPPC     C27      CTL2    -0.180000       12.0110           0
      4738 MEMB     37       DPPC     H7R      HAL2     0.900000E-01   1.00800           0
      4739 MEMB     37       DPPC     H7S      HAL2     0.900000E-01   1.00800           0
      4740 MEMB     37       DPPC     C28      CTL2    -0.180000       12.0110           0
      4741 MEMB     37       DPPC     H8R      HAL2     0.900000E-01   1.00800           0
      4742 MEMB     37       DPPC     H8S      HAL2     0.900000E-01   1.00800           0
      4743 MEMB     37       DPPC     C29      CTL2    -0.180000       12.0110           0
      4744 MEMB     37       DPPC     H9R      HAL2     0.900000E-01   1.00800           0
      4745 MEMB     37       DPPC     H9S      HAL2     0.900000E-01   1.00800           0
      4746 MEMB     37       DPPC     C210     CTL2    -0.180000       12.0110           0
      4747 MEMB     37       DPPC     H10R     HAL2     0.900000E-01   1.00800           0
      4748 MEMB     37       DPPC     H10S     HAL2     0.900000E-01   1.00800           0
      4749 MEMB     37       DPPC     C211     CTL2    -0.180000       12.0110           0
      4750 MEMB     37       DPPC     H11R     HAL2     0.900000E-01   1.00800           0
      4751 MEMB     37       DPPC     H11S     HAL2     0.900000E-01   1.00800           0
      4752 MEMB     37       DPPC     C212     CTL2    -0.180000       12.0110           0
      4753 MEMB     37       DPPC     H12R     HAL2     0.900000E-01   1.00800           0
      4754 MEMB     37       DPPC     H12S     HAL2     0.900000E-01   1.00800           0
      4755 MEMB     37       DPPC     C213     CTL2    -0.180000       12.0110           0
      4756 MEMB     37       DPPC     H13R     HAL2     0.900000E-01   1.00800           0
      4757 MEMB     37       DPPC     H13S     HAL2     0.900000E-01   1.00800           0
      4758 MEMB     37       DPPC     C214     CTL2    -0.180000       12.0110           0
      4759 MEMB     37       DPPC     H14R     HAL2     0.900000E-01   1.00800           0
      4760 MEMB     37       DPPC     H14S     HAL2     0.900000E-01   1.00800           0
      4761 MEMB     37       DPPC     C215     CTL2    -0.180000       12.0110           0
      4762 MEMB     37       DPPC     H15R     HAL2     0.900000E-01   1.00800           0
      4763 MEMB     37       DPPC     H15S     HAL2     0.900000E-01   1.00800           0
      4764 MEMB     37       DPPC     C216     CTL3    -0.270000       12.0110           0
      4765 MEMB     37       DPPC     H16R     HAL3     0.900000E-01   1.00800           0
      4766 MEMB     37       DPPC     H16S     HAL3     0.900000E-01   1.00800           0
      4767 MEMB     37       DPPC     H16T     HAL3     0.900000E-01   1.00800           0
      4768 MEMB     37       DPPC     C33      CTL2    -0.180000       12.0110           0
      4769 MEMB     37       DPPC     H3X      HAL2     0.900000E-01   1.00800           0
      4770 MEMB     37       DPPC     H3Y      HAL2     0.900000E-01   1.00800           0
      4771 MEMB     37       DPPC     C34      CTL2    -0.180000       12.0110           0
      4772 MEMB     37       DPPC     H4X      HAL2     0.900000E-01   1.00800           0
      4773 MEMB     37       DPPC     H4Y      HAL2     0.900000E-01   1.00800           0
      4774 MEMB     37       DPPC     C35      CTL2    -0.180000       12.0110           0
      4775 MEMB     37       DPPC     H5X      HAL2     0.900000E-01   1.00800           0
      4776 MEMB     37       DPPC     H5Y      HAL2     0.900000E-01   1.00800           0
      4777 MEMB     37       DPPC     C36      CTL2    -0.180000       12.0110           0
      4778 MEMB     37       DPPC     H6X      HAL2     0.900000E-01   1.00800           0
      4779 MEMB     37       DPPC     H6Y      HAL2     0.900000E-01   1.00800           0
      4780 MEMB     37       DPPC     C37      CTL2    -0.180000       12.0110           0
      4781 MEMB     37       DPPC     H7X      HAL2     0.900000E-01   1.00800           0
      4782 MEMB     37       DPPC     H7Y      HAL2     0.900000E-01   1.00800           0
      4783 MEMB     37       DPPC     C38      CTL2    -0.180000       12.0110           0
      4784 MEMB     37       DPPC     H8X      HAL2     0.900000E-01   1.00800           0
      4785 MEMB     37       DPPC     H8Y      HAL2     0.900000E-01   1.00800           0
      4786 MEMB     37       DPPC     C39      CTL2    -0.180000       12.0110           0
      4787 MEMB     37       DPPC     H9X      HAL2     0.900000E-01   1.00800           0
      4788 MEMB     37       DPPC     H9Y      HAL2     0.900000E-01   1.00800           0
      4789 MEMB     37       DPPC     C310     CTL2    -0.180000       12.0110           0
      4790 MEMB     37       DPPC     H10X     HAL2     0.900000E-01   1.00800           0
      4791 MEMB     37       DPPC     H10Y     HAL2     0.900000E-01   1.00800           0
      4792 MEMB     37       DPPC     C311     CTL2    -0.180000       12.0110           0
      4793 MEMB     37       DPPC     H11X     HAL2     0.900000E-01   1.00800           0
      4794 MEMB     37       DPPC     H11Y     HAL2     0.900000E-01   1.00800           0
      4795 MEMB     37       DPPC     C312     CTL2    -0.180000       12.0110           0
      4796 MEMB     37       DPPC     H12X     HAL2     0.900000E-01   1.00800           0
      4797 MEMB     37       DPPC     H12Y     HAL2     0.900000E-01   1.00800           0
      4798 MEMB     37       DPPC     C313     CTL2    -0.180000       12.0110           0
      4799 MEMB     37       DPPC     H13X     HAL2     0.900000E-01   1.00800           0
      4800 MEMB     37       DPPC     H13Y     HAL2     0.900000E-01   1.00800           0
      4801 MEMB     37       DPPC     C314     CTL2    -0.180000       12.0110           0
      4802 MEMB     37       DPPC     H14X     HAL2     0.900000E-01   1.00800           0
      4803 MEMB     37       DPPC     H14Y     HAL2     0.900000E-01   1.00800           0
      4804 MEMB     37       DPPC     C315     CTL2    -0.180000       12.0110           0
      4805 MEMB     37       DPPC     H15X     HAL2     0.900000E-01   1.00800           0
      4806 MEMB     37       DPPC     H15Y     HAL2     0.900000E-01   1.00800           0
      4807 MEMB     37       DPPC     C316     CTL3    -0.270000       12.0110           0
      4808 MEMB     37       DPPC     H16X     HAL3     0.900000E-01   1.00800           0
      4809 MEMB     37       DPPC     H16Y     HAL3     0.900000E-01   1.00800           0
      4810 MEMB     37       DPPC     H16Z     HAL3     0.900000E-01   1.00800           0
      4811 MEMB     38       DPPC     N        NTL     -0.600000       14.0070           0
      4812 MEMB     38       DPPC     C13      CTL5    -0.350000       12.0110           0
      4813 MEMB     38       DPPC     H13A     HL       0.250000       1.00800           0
      4814 MEMB     38       DPPC     H13B     HL       0.250000       1.00800           0
      4815 MEMB     38       DPPC     H13C     HL       0.250000       1.00800           0
      4816 MEMB     38       DPPC     C14      CTL5    -0.350000       12.0110           0
      4817 MEMB     38       DPPC     H14A     HL       0.250000       1.00800           0
      4818 MEMB     38       DPPC     H14B     HL       0.250000       1.00800           0
      4819 MEMB     38       DPPC     H14C     HL       0.250000       1.00800           0
      4820 MEMB     38       DPPC     C15      CTL5    -0.350000       12.0110           0
      4821 MEMB     38       DPPC     H15A     HL       0.250000       1.00800           0
      4822 MEMB     38       DPPC     H15B     HL       0.250000       1.00800           0
      4823 MEMB     38       DPPC     H15C     HL       0.250000       1.00800           0
      4824 MEMB     38       DPPC     C12      CTL2    -0.100000       12.0110           0
      4825 MEMB     38       DPPC     H12A     HL       0.250000       1.00800           0
      4826 MEMB     38       DPPC     H12B     HL       0.250000       1.00800           0
      4827 MEMB     38       DPPC     C11      CTL2    -0.800000E-01   12.0110           0
      4828 MEMB     38       DPPC     H11A     HAL2     0.900000E-01   1.00800           0
      4829 MEMB     38       DPPC     H11B     HAL2     0.900000E-01   1.00800           0
      4830 MEMB     38       DPPC     P        PL       1.500000       30.9740           0
      4831 MEMB     38       DPPC     O13      O2L     -0.780000       15.9994           0
      4832 MEMB     38       DPPC     O14      O2L     -0.780000       15.9994           0
      4833 MEMB     38       DPPC     O11      OSLP    -0.570000       15.9994           0
      4834 MEMB     38       DPPC     O12      OSLP    -0.570000       15.9994           0
      4835 MEMB     38       DPPC     C1       CTL2    -0.800000E-01   12.0110           0
      4836 MEMB     38       DPPC     HA       HAL2     0.900000E-01   1.00800           0
      4837 MEMB     38       DPPC     HB       HAL2     0.900000E-01   1.00800           0
      4838 MEMB     38       DPPC     C2       CTL1     0.170000       12.0110           0
      4839 MEMB     38       DPPC     HS       HAL1     0.900000E-01   1.00800           0
      4840 MEMB     38       DPPC     O21      OSL     -0.490000       15.9994           0
      4841 MEMB     38       DPPC     C21      CL       0.900000       12.0110           0
      4842 MEMB     38       DPPC     O22      OBL     -0.630000       15.9994           0
      4843 MEMB     38       DPPC     C22      CTL2    -0.220000       12.0110           0
      4844 MEMB     38       DPPC     H2R      HAL2     0.900000E-01   1.00800           0
      4845 MEMB     38       DPPC     H2S      HAL2     0.900000E-01   1.00800           0
      4846 MEMB     38       DPPC     C3       CTL2     0.800000E-01   12.0110           0
      4847 MEMB     38       DPPC     HX       HAL2     0.900000E-01   1.00800           0
      4848 MEMB     38       DPPC     HY       HAL2     0.900000E-01   1.00800           0
      4849 MEMB     38       DPPC     O31      OSL     -0.490000       15.9994           0
      4850 MEMB     38       DPPC     C31      CL       0.900000       12.0110           0
      4851 MEMB     38       DPPC     O32      OBL     -0.630000       15.9994           0
      4852 MEMB     38       DPPC     C32      CTL2    -0.220000       12.0110           0
      4853 MEMB     38       DPPC     H2X      HAL2     0.900000E-01   1.00800           0
      4854 MEMB     38       DPPC     H2Y      HAL2     0.900000E-01   1.00800           0
      4855 MEMB     38       DPPC     C23      CTL2    -0.180000       12.0110           0
      4856 MEMB     38       DPPC     H3R      HAL2     0.900000E-01   1.00800           0
      4857 MEMB     38       DPPC     H3S      HAL2     0.900000E-01   1.00800           0
      4858 MEMB     38       DPPC     C24      CTL2    -0.180000       12.0110           0
      4859 MEMB     38       DPPC     H4R      HAL2     0.900000E-01   1.00800           0
      4860 MEMB     38       DPPC     H4S      HAL2     0.900000E-01   1.00800           0
      4861 MEMB     38       DPPC     C25      CTL2    -0.180000       12.0110           0
      4862 MEMB     38       DPPC     H5R      HAL2     0.900000E-01   1.00800           0
      4863 MEMB     38       DPPC     H5S      HAL2     0.900000E-01   1.00800           0
      4864 MEMB     38       DPPC     C26      CTL2    -0.180000       12.0110           0
      4865 MEMB     38       DPPC     H6R      HAL2     0.900000E-01   1.00800           0
      4866 MEMB     38       DPPC     H6S      HAL2     0.900000E-01   1.00800           0
      4867 MEMB     38       DPPC     C27      CTL2    -0.180000       12.0110           0
      4868 MEMB     38       DPPC     H7R      HAL2     0.900000E-01   1.00800           0
      4869 MEMB     38       DPPC     H7S      HAL2     0.900000E-01   1.00800           0
      4870 MEMB     38       DPPC     C28      CTL2    -0.180000       12.0110           0
      4871 MEMB     38       DPPC     H8R      HAL2     0.900000E-01   1.00800           0
      4872 MEMB     38       DPPC     H8S      HAL2     0.900000E-01   1.00800           0
      4873 MEMB     38       DPPC     C29      CTL2    -0.180000       12.0110           0
      4874 MEMB     38       DPPC     H9R      HAL2     0.900000E-01   1.00800           0
      4875 MEMB     38       DPPC     H9S      HAL2     0.900000E-01   1.00800           0
      4876 MEMB     38       DPPC     C210     CTL2    -0.180000       12.0110           0
      4877 MEMB     38       DPPC     H10R     HAL2     0.900000E-01   1.00800           0
      4878 MEMB     38       DPPC     H10S     HAL2     0.900000E-01   1.00800           0
      4879 MEMB     38       DPPC     C211     CTL2    -0.180000       12.0110           0
      4880 MEMB     38       DPPC     H11R     HAL2     0.900000E-01   1.00800           0
      4881 MEMB     38       DPPC     H11S     HAL2     0.900000E-01   1.00800           0
      4882 MEMB     38       DPPC     C212     CTL2    -0.180000       12.0110           0
      4883 MEMB     38       DPPC     H12R     HAL2     0.900000E-01   1.00800           0
      4884 MEMB     38       DPPC     H12S     HAL2     0.900000E-01   1.00800           0
      4885 MEMB     38       DPPC     C213     CTL2    -0.180000       12.0110           0
      4886 MEMB     38       DPPC     H13R     HAL2     0.900000E-01   1.00800           0
      4887 MEMB     38       DPPC     H13S     HAL2     0.900000E-01   1.00800           0
      4888 MEMB     38       DPPC     C214     CTL2    -0.180000       12.0110           0
      4889 MEMB     38       DPPC     H14R     HAL2     0.900000E-01   1.00800           0
      4890 MEMB     38       DPPC     H14S     HAL2     0.900000E-01   1.00800           0
      4891 MEMB     38       DPPC     C215     CTL2    -0.180000       12.0110           0
      4892 MEMB     38       DPPC     H15R     HAL2     0.900000E-01   1.00800           0
      4893 MEMB     38       DPPC     H15S     HAL2     0.900000E-01   1.00800           0
      4894 MEMB     38       DPPC     C216     CTL3    -0.270000       12.0110           0
      4895 MEMB     38       DPPC     H16R     HAL3     0.900000E-01   1.00800           0
      4896 MEMB     38       DPPC     H16S     HAL3     0.900000E-01   1.00800           0
      4897 MEMB     38       DPPC     H16T     HAL3     0.900000E-01   1.00800           0
      4898 MEMB     38       DPPC     C33      CTL2    -0.180000       12.0110           0
      4899 MEMB     38       DPPC     H3X      HAL2     0.900000E-01   1.00800           0
      4900 MEMB     38       DPPC     H3Y      HAL2     0.900000E-01   1.00800           0
      4901 MEMB     38       DPPC     C34      CTL2    -0.180000       12.0110           0
      4902 MEMB     38       DPPC     H4X      HAL2     0.900000E-01   1.00800           0
      4903 MEMB     38       DPPC     H4Y      HAL2     0.900000E-01   1.00800           0
      4904 MEMB     38       DPPC     C35      CTL2    -0.180000       12.0110           0
      4905 MEMB     38       DPPC     H5X      HAL2     0.900000E-01   1.00800           0
      4906 MEMB     38       DPPC     H5Y      HAL2     0.900000E-01   1.00800           0
      4907 MEMB     38       DPPC     C36      CTL2    -0.180000       12.0110           0
      4908 MEMB     38       DPPC     H6X      HAL2     0.900000E-01   1.00800           0
      4909 MEMB     38       DPPC     H6Y      HAL2     0.900000E-01   1.00800           0
      4910 MEMB     38       DPPC     C37      CTL2    -0.180000       12.0110           0
      4911 MEMB     38       DPPC     H7X      HAL2     0.900000E-01   1.00800           0
      4912 MEMB     38       DPPC     H7Y      HAL2     0.900000E-01   1.00800           0
      4913 MEMB     38       DPPC     C38      CTL2    -0.180000       12.0110           0
      4914 MEMB     38       DPPC     H8X      HAL2     0.900000E-01   1.00800           0
      4915 MEMB     38       DPPC     H8Y      HAL2     0.900000E-01   1.00800           0
      4916 MEMB     38       DPPC     C39      CTL2    -0.180000       12.0110           0
      4917 MEMB     38       DPPC     H9X      HAL2     0.900000E-01   1.00800           0
      4918 MEMB     38       DPPC     H9Y      HAL2     0.900000E-01   1.00800           0
      4919 MEMB     38       DPPC     C310     CTL2    -0.180000       12.0110           0
      4920 MEMB     38       DPPC     H10X     HAL2     0.900000E-01   1.00800           0
      4921 MEMB     38       DPPC     H10Y     HAL2     0.900000E-01   1.00800           0
      4922 MEMB     38       DPPC     C311     CTL2    -0.180000       12.0110           0
      4923 MEMB     38       DPPC     H11X     HAL2     0.900000E-01   1.00800           0
      4924 MEMB     38       DPPC     H11Y     HAL2     0.900000E-01   1.00800           0
      4925 MEMB     38       DPPC     C312     CTL2    -0.180000       12.0110           0
      4926 MEMB     38       DPPC     H12X     HAL2     0.900000E-01   1.00800           0
      4927 MEMB     38       DPPC     H12Y     HAL2     0.900000E-01   1.00800           0
      4928 MEMB     38       DPPC     C313     CTL2    -0.180000       12.0110           0
      4929 MEMB     38       DPPC     H13X     HAL2     0.900000E-01   1.00800           0
      4930 MEMB     38       DPPC     H13Y     HAL2     0.900000E-01   1.00800           0
      4931 MEMB     38       DPPC     C314     CTL2    -0.180000       12.0110           0
      4932 MEMB     38       DPPC     H14X     HAL2     0.900000E-01   1.00800           0
      4933 MEMB     38       DPPC     H14Y     HAL2     0.900000E-01   1.00800           0
      4934 MEMB     38       DPPC     C315     CTL2    -0.180000       12.0110           0
      4935 MEMB     38       DPPC     H15X     HAL2     0.900000E-01   1.00800           0
      4936 MEMB     38       DPPC     H15Y     HAL2     0.900000E-01   1.00800           0
      4937 MEMB     38       DPPC     C316     CTL3    -0.270000       12.0110           0
      4938 MEMB     38       DPPC     H16X     HAL3     0.900000E-01   1.00800           0
      4939 MEMB     38       DPPC     H16Y     HAL3     0.900000E-01   1.00800           0
      4940 MEMB     38       DPPC     H16Z     HAL3     0.900000E-01   1.00800           0
      4941 MEMB     39       DPPC     N        NTL     -0.600000       14.0070           0
      4942 MEMB     39       DPPC     C13      CTL5    -0.350000       12.0110           0
      4943 MEMB     39       DPPC     H13A     HL       0.250000       1.00800           0
      4944 MEMB     39       DPPC     H13B     HL       0.250000       1.00800           0
      4945 MEMB     39       DPPC     H13C     HL       0.250000       1.00800           0
      4946 MEMB     39       DPPC     C14      CTL5    -0.350000       12.0110           0
      4947 MEMB     39       DPPC     H14A     HL       0.250000       1.00800           0
      4948 MEMB     39       DPPC     H14B     HL       0.250000       1.00800           0
      4949 MEMB     39       DPPC     H14C     HL       0.250000       1.00800           0
      4950 MEMB     39       DPPC     C15      CTL5    -0.350000       12.0110           0
      4951 MEMB     39       DPPC     H15A     HL       0.250000       1.00800           0
      4952 MEMB     39       DPPC     H15B     HL       0.250000       1.00800           0
      4953 MEMB     39       DPPC     H15C     HL       0.250000       1.00800           0
      4954 MEMB     39       DPPC     C12      CTL2    -0.100000       12.0110           0
      4955 MEMB     39       DPPC     H12A     HL       0.250000       1.00800           0
      4956 MEMB     39       DPPC     H12B     HL       0.250000       1.00800           0
      4957 MEMB     39       DPPC     C11      CTL2    -0.800000E-01   12.0110           0
      4958 MEMB     39       DPPC     H11A     HAL2     0.900000E-01   1.00800           0
      4959 MEMB     39       DPPC     H11B     HAL2     0.900000E-01   1.00800           0
      4960 MEMB     39       DPPC     P        PL       1.500000       30.9740           0
      4961 MEMB     39       DPPC     O13      O2L     -0.780000       15.9994           0
      4962 MEMB     39       DPPC     O14      O2L     -0.780000       15.9994           0
      4963 MEMB     39       DPPC     O11      OSLP    -0.570000       15.9994           0
      4964 MEMB     39       DPPC     O12      OSLP    -0.570000       15.9994           0
      4965 MEMB     39       DPPC     C1       CTL2    -0.800000E-01   12.0110           0
      4966 MEMB     39       DPPC     HA       HAL2     0.900000E-01   1.00800           0
      4967 MEMB     39       DPPC     HB       HAL2     0.900000E-01   1.00800           0
      4968 MEMB     39       DPPC     C2       CTL1     0.170000       12.0110           0
      4969 MEMB     39       DPPC     HS       HAL1     0.900000E-01   1.00800           0
      4970 MEMB     39       DPPC     O21      OSL     -0.490000       15.9994           0
      4971 MEMB     39       DPPC     C21      CL       0.900000       12.0110           0
      4972 MEMB     39       DPPC     O22      OBL     -0.630000       15.9994           0
      4973 MEMB     39       DPPC     C22      CTL2    -0.220000       12.0110           0
      4974 MEMB     39       DPPC     H2R      HAL2     0.900000E-01   1.00800           0
      4975 MEMB     39       DPPC     H2S      HAL2     0.900000E-01   1.00800           0
      4976 MEMB     39       DPPC     C3       CTL2     0.800000E-01   12.0110           0
      4977 MEMB     39       DPPC     HX       HAL2     0.900000E-01   1.00800           0
      4978 MEMB     39       DPPC     HY       HAL2     0.900000E-01   1.00800           0
      4979 MEMB     39       DPPC     O31      OSL     -0.490000       15.9994           0
      4980 MEMB     39       DPPC     C31      CL       0.900000       12.0110           0
      4981 MEMB     39       DPPC     O32      OBL     -0.630000       15.9994           0
      4982 MEMB     39       DPPC     C32      CTL2    -0.220000       12.0110           0
      4983 MEMB     39       DPPC     H2X      HAL2     0.900000E-01   1.00800           0
      4984 MEMB     39       DPPC     H2Y      HAL2     0.900000E-01   1.00800           0
      4985 MEMB     39       DPPC     C23      CTL2    -0.180000       12.0110           0
      4986 MEMB     39       DPPC     H3R      HAL2     0.900000E-01   1.00800           0
      4987 MEMB     39       DPPC     H3S      HAL2     0.900000E-01   1.00800           0
      4988 MEMB     39       DPPC     C24      CTL2    -0.180000       12.0110           0
      4989 MEMB     39       DPPC     H4R      HAL2     0.900000E-01   1.00800           0
      4990 MEMB     39       DPPC     H4S      HAL2     0.900000E-01   1.00800           0
      4991 MEMB     39       DPPC     C25      CTL2    -0.180000       12.0110           0
      4992 MEMB     39       DPPC     H5R      HAL2     0.900000E-01   1.00800           0
      4993 MEMB     39       DPPC     H5S      HAL2     0.900000E-01   1.00800           0
      4994 MEMB     39       DPPC     C26      CTL2    -0.180000       12.0110           0
      4995 MEMB     39       DPPC     H6R      HAL2     0.900000E-01   1.00800           0
      4996 MEMB     39       DPPC     H6S      HAL2     0.900000E-01   1.00800           0
      4997 MEMB     39       DPPC     C27      CTL2    -0.180000       12.0110           0
      4998 MEMB     39       DPPC     H7R      HAL2     0.900000E-01   1.00800           0
      4999 MEMB     39       DPPC     H7S      HAL2     0.900000E-01   1.00800           0
      5000 MEMB     39       DPPC     C28      CTL2    -0.180000       12.0110           0
      5001 MEMB     39       DPPC     H8R      HAL2     0.900000E-01   1.00800           0
      5002 MEMB     39       DPPC     H8S      HAL2     0.900000E-01   1.00800           0
      5003 MEMB     39       DPPC     C29      CTL2    -0.180000       12.0110           0
      5004 MEMB     39       DPPC     H9R      HAL2     0.900000E-01   1.00800           0
      5005 MEMB     39       DPPC     H9S      HAL2     0.900000E-01   1.00800           0
      5006 MEMB     39       DPPC     C210     CTL2    -0.180000       12.0110           0
      5007 MEMB     39       DPPC     H10R     HAL2     0.900000E-01   1.00800           0
      5008 MEMB     39       DPPC     H10S     HAL2     0.900000E-01   1.00800           0
      5009 MEMB     39       DPPC     C211     CTL2    -0.180000       12.0110           0
      5010 MEMB     39       DPPC     H11R     HAL2     0.900000E-01   1.00800           0
      5011 MEMB     39       DPPC     H11S     HAL2     0.900000E-01   1.00800           0
      5012 MEMB     39       DPPC     C212     CTL2    -0.180000       12.0110           0
      5013 MEMB     39       DPPC     H12R     HAL2     0.900000E-01   1.00800           0
      5014 MEMB     39       DPPC     H12S     HAL2     0.900000E-01   1.00800           0
      5015 MEMB     39       DPPC     C213     CTL2    -0.180000       12.0110           0
      5016 MEMB     39       DPPC     H13R     HAL2     0.900000E-01   1.00800           0
      5017 MEMB     39       DPPC     H13S     HAL2     0.900000E-01   1.00800           0
      5018 MEMB     39       DPPC     C214     CTL2    -0.180000       12.0110           0
      5019 MEMB     39       DPPC     H14R     HAL2     0.900000E-01   1.00800           0
      5020 MEMB     39       DPPC     H14S     HAL2     0.900000E-01   1.00800           0
      5021 MEMB     39       DPPC     C215     CTL2    -0.180000       12.0110           0
      5022 MEMB     39       DPPC     H15R     HAL2     0.900000E-01   1.00800           0
      5023 MEMB     39       DPPC     H15S     HAL2     0.900000E-01   1.00800           0
      5024 MEMB     39       DPPC     C216     CTL3    -0.270000       12.0110           0
      5025 MEMB     39       DPPC     H16R     HAL3     0.900000E-01   1.00800           0
      5026 MEMB     39       DPPC     H16S     HAL3     0.900000E-01   1.00800           0
      5027 MEMB     39       DPPC     H16T     HAL3     0.900000E-01   1.00800           0
      5028 MEMB     39       DPPC     C33      CTL2    -0.180000       12.0110           0
      5029 MEMB     39       DPPC     H3X      HAL2     0.900000E-01   1.00800           0
      5030 MEMB     39       DPPC     H3Y      HAL2     0.900000E-01   1.00800           0
      5031 MEMB     39       DPPC     C34      CTL2    -0.180000       12.0110           0
      5032 MEMB     39       DPPC     H4X      HAL2     0.900000E-01   1.00800           0
      5033 MEMB     39       DPPC     H4Y      HAL2     0.900000E-01   1.00800           0
      5034 MEMB     39       DPPC     C35      CTL2    -0.180000       12.0110           0
      5035 MEMB     39       DPPC     H5X      HAL2     0.900000E-01   1.00800           0
      5036 MEMB     39       DPPC     H5Y      HAL2     0.900000E-01   1.00800           0
      5037 MEMB     39       DPPC     C36      CTL2    -0.180000       12.0110           0
      5038 MEMB     39       DPPC     H6X      HAL2     0.900000E-01   1.00800           0
      5039 MEMB     39       DPPC     H6Y      HAL2     0.900000E-01   1.00800           0
      5040 MEMB     39       DPPC     C37      CTL2    -0.180000       12.0110           0
      5041 MEMB     39       DPPC     H7X      HAL2     0.900000E-01   1.00800           0
      5042 MEMB     39       DPPC     H7Y      HAL2     0.900000E-01   1.00800           0
      5043 MEMB     39       DPPC     C38      CTL2    -0.180000       12.0110           0
      5044 MEMB     39       DPPC     H8X      HAL2     0.900000E-01   1.00800           0
      5045 MEMB     39       DPPC     H8Y      HAL2     0.900000E-01   1.00800           0
      5046 MEMB     39       DPPC     C39      CTL2    -0.180000       12.0110           0
      5047 MEMB     39       DPPC     H9X      HAL2     0.900000E-01   1.00800           0
      5048 MEMB     39       DPPC     H9Y      HAL2     0.900000E-01   1.00800           0
      5049 MEMB     39       DPPC     C310     CTL2    -0.180000       12.0110           0
      5050 MEMB     39       DPPC     H10X     HAL2     0.900000E-01   1.00800           0
      5051 MEMB     39       DPPC     H10Y     HAL2     0.900000E-01   1.00800           0
      5052 MEMB     39       DPPC     C311     CTL2    -0.180000       12.0110           0
      5053 MEMB     39       DPPC     H11X     HAL2     0.900000E-01   1.00800           0
      5054 MEMB     39       DPPC     H11Y     HAL2     0.900000E-01   1.00800           0
      5055 MEMB     39       DPPC     C312     CTL2    -0.180000       12.0110           0
      5056 MEMB     39       DPPC     H12X     HAL2     0.900000E-01   1.00800           0
      5057 MEMB     39       DPPC     H12Y     HAL2     0.900000E-01   1.00800           0
      5058 MEMB     39       DPPC     C313     CTL2    -0.180000       12.0110           0
      5059 MEMB     39       DPPC     H13X     HAL2     0.900000E-01   1.00800           0
      5060 MEMB     39       DPPC     H13Y     HAL2     0.900000E-01   1.00800           0
      5061 MEMB     39       DPPC     C314     CTL2    -0.180000       12.0110           0
      5062 MEMB     39       DPPC     H14X     HAL2     0.900000E-01   1.00800           0
      5063 MEMB     39       DPPC     H14Y     HAL2     0.900000E-01   1.00800           0
      5064 MEMB     39       DPPC     C315     CTL2    -0.180000       12.0110           0
      5065 MEMB     39       DPPC     H15X     HAL2     0.900000E-01   1.00800           0
      5066 MEMB     39       DPPC     H15Y     HAL2     0.900000E-01   1.00800           0
      5067 MEMB     39       DPPC     C316     CTL3    -0.270000       12.0110           0
      5068 MEMB     39       DPPC     H16X     HAL3     0.900000E-01   1.00800           0
      5069 MEMB     39       DPPC     H16Y     HAL3     0.900000E-01   1.00800           0
      5070 MEMB     39       DPPC     H16Z     HAL3     0.900000E-01   1.00800           0
      5071 MEMB     40       DPPC     N        NTL     -0.600000       14.0070           0
      5072 MEMB     40       DPPC     C13      CTL5    -0.350000       12.0110           0
      5073 MEMB     40       DPPC     H13A     HL       0.250000       1.00800           0
      5074 MEMB     40       DPPC     H13B     HL       0.250000       1.00800           0
      5075 MEMB     40       DPPC     H13C     HL       0.250000       1.00800           0
      5076 MEMB     40       DPPC     C14      CTL5    -0.350000       12.0110           0
      5077 MEMB     40       DPPC     H14A     HL       0.250000       1.00800           0
      5078 MEMB     40       DPPC     H14B     HL       0.250000       1.00800           0
      5079 MEMB     40       DPPC     H14C     HL       0.250000       1.00800           0
      5080 MEMB     40       DPPC     C15      CTL5    -0.350000       12.0110           0
      5081 MEMB     40       DPPC     H15A     HL       0.250000       1.00800           0
      5082 MEMB     40       DPPC     H15B     HL       0.250000       1.00800           0
      5083 MEMB     40       DPPC     H15C     HL       0.250000       1.00800           0
      5084 MEMB     40       DPPC     C12      CTL2    -0.100000       12.0110           0
      5085 MEMB     40       DPPC     H12A     HL       0.250000       1.00800           0
      5086 MEMB     40       DPPC     H12B     HL       0.250000       1.00800           0
      5087 MEMB     40       DPPC     C11      CTL2    -0.800000E-01   12.0110           0
      5088 MEMB     40       DPPC     H11A     HAL2     0.900000E-01   1.00800           0
      5089 MEMB     40       DPPC     H11B     HAL2     0.900000E-01   1.00800           0
      5090 MEMB     40       DPPC     P        PL       1.500000       30.9740           0
      5091 MEMB     40       DPPC     O13      O2L     -0.780000       15.9994           0
      5092 MEMB     40       DPPC     O14      O2L     -0.780000       15.9994           0
      5093 MEMB     40       DPPC     O11      OSLP    -0.570000       15.9994           0
      5094 MEMB     40       DPPC     O12      OSLP    -0.570000       15.9994           0
      5095 MEMB     40       DPPC     C1       CTL2    -0.800000E-01   12.0110           0
      5096 MEMB     40       DPPC     HA       HAL2     0.900000E-01   1.00800           0
      5097 MEMB     40       DPPC     HB       HAL2     0.900000E-01   1.00800           0
      5098 MEMB     40       DPPC     C2       CTL1     0.170000       12.0110           0
      5099 MEMB     40       DPPC     HS       HAL1     0.900000E-01   1.00800           0
      5100 MEMB     40       DPPC     O21      OSL     -0.490000       15.9994           0
      5101 MEMB     40       DPPC     C21      CL       0.900000       12.0110           0
      5102 MEMB     40       DPPC     O22      OBL     -0.630000       15.9994           0
      5103 MEMB     40       DPPC     C22      CTL2    -0.220000       12.0110           0
      5104 MEMB     40       DPPC     H2R      HAL2     0.900000E-01   1.00800           0
      5105 MEMB     40       DPPC     H2S      HAL2     0.900000E-01   1.00800           0
      5106 MEMB     40       DPPC     C3       CTL2     0.800000E-01   12.0110           0
      5107 MEMB     40       DPPC     HX       HAL2     0.900000E-01   1.00800           0
      5108 MEMB     40       DPPC     HY       HAL2     0.900000E-01   1.00800           0
      5109 MEMB     40       DPPC     O31      OSL     -0.490000       15.9994           0
      5110 MEMB     40       DPPC     C31      CL       0.900000       12.0110           0
      5111 MEMB     40       DPPC     O32      OBL     -0.630000       15.9994           0
      5112 MEMB     40       DPPC     C32      CTL2    -0.220000       12.0110           0
      5113 MEMB     40       DPPC     H2X      HAL2     0.900000E-01   1.00800           0
      5114 MEMB     40       DPPC     H2Y      HAL2     0.900000E-01   1.00800           0
      5115 MEMB     40       DPPC     C23      CTL2    -0.180000       12.0110           0
      5116 MEMB     40       DPPC     H3R      HAL2     0.900000E-01   1.00800           0
      5117 MEMB     40       DPPC     H3S      HAL2     0.900000E-01   1.00800           0
      5118 MEMB     40       DPPC     C24      CTL2    -0.180000       12.0110           0
      5119 MEMB     40       DPPC     H4R      HAL2     0.900000E-01   1.00800           0
      5120 MEMB     40       DPPC     H4S      HAL2     0.900000E-01   1.00800           0
      5121 MEMB     40       DPPC     C25      CTL2    -0.180000       12.0110           0
      5122 MEMB     40       DPPC     H5R      HAL2     0.900000E-01   1.00800           0
      5123 MEMB     40       DPPC     H5S      HAL2     0.900000E-01   1.00800           0
      5124 MEMB     40       DPPC     C26      CTL2    -0.180000       12.0110           0
      5125 MEMB     40       DPPC     H6R      HAL2     0.900000E-01   1.00800           0
      5126 MEMB     40       DPPC     H6S      HAL2     0.900000E-01   1.00800           0
      5127 MEMB     40       DPPC     C27      CTL2    -0.180000       12.0110           0
      5128 MEMB     40       DPPC     H7R      HAL2     0.900000E-01   1.00800           0
      5129 MEMB     40       DPPC     H7S      HAL2     0.900000E-01   1.00800           0
      5130 MEMB     40       DPPC     C28      CTL2    -0.180000       12.0110           0
      5131 MEMB     40       DPPC     H8R      HAL2     0.900000E-01   1.00800           0
      5132 MEMB     40       DPPC     H8S      HAL2     0.900000E-01   1.00800           0
      5133 MEMB     40       DPPC     C29      CTL2    -0.180000       12.0110           0
      5134 MEMB     40       DPPC     H9R      HAL2     0.900000E-01   1.00800           0
      5135 MEMB     40       DPPC     H9S      HAL2     0.900000E-01   1.00800           0
      5136 MEMB     40       DPPC     C210     CTL2    -0.180000       12.0110           0
      5137 MEMB     40       DPPC     H10R     HAL2     0.900000E-01   1.00800           0
      5138 MEMB     40       DPPC     H10S     HAL2     0.900000E-01   1.00800           0
      5139 MEMB     40       DPPC     C211     CTL2    -0.180000       12.0110           0
      5140 MEMB     40       DPPC     H11R     HAL2     0.900000E-01   1.00800           0
      5141 MEMB     40       DPPC     H11S     HAL2     0.900000E-01   1.00800           0
      5142 MEMB     40       DPPC     C212     CTL2    -0.180000       12.0110           0
      5143 MEMB     40       DPPC     H12R     HAL2     0.900000E-01   1.00800           0
      5144 MEMB     40       DPPC     H12S     HAL2     0.900000E-01   1.00800           0
      5145 MEMB     40       DPPC     C213     CTL2    -0.180000       12.0110           0
      5146 MEMB     40       DPPC     H13R     HAL2     0.900000E-01   1.00800           0
      5147 MEMB     40       DPPC     H13S     HAL2     0.900000E-01   1.00800           0
      5148 MEMB     40       DPPC     C214     CTL2    -0.180000       12.0110           0
      5149 MEMB     40       DPPC     H14R     HAL2     0.900000E-01   1.00800           0
      5150 MEMB     40       DPPC     H14S     HAL2     0.900000E-01   1.00800           0
      5151 MEMB     40       DPPC     C215     CTL2    -0.180000       12.0110           0
      5152 MEMB     40       DPPC     H15R     HAL2     0.900000E-01   1.00800           0
      5153 MEMB     40       DPPC     H15S     HAL2     0.900000E-01   1.00800           0
      5154 MEMB     40       DPPC     C216     CTL3    -0.270000       12.0110           0
      5155 MEMB     40       DPPC     H16R     HAL3     0.900000E-01   1.00800           0
      5156 MEMB     40       DPPC     H16S     HAL3     0.900000E-01   1.00800           0
      5157 MEMB     40       DPPC     H16T     HAL3     0.900000E-01   1.00800           0
      5158 MEMB     40       DPPC     C33      CTL2    -0.180000       12.0110           0
      5159 MEMB     40       DPPC     H3X      HAL2     0.900000E-01   1.00800           0
      5160 MEMB     40       DPPC     H3Y      HAL2     0.900000E-01   1.00800           0
      5161 MEMB     40       DPPC     C34      CTL2    -0.180000       12.0110           0
      5162 MEMB     40       DPPC     H4X      HAL2     0.900000E-01   1.00800           0
      5163 MEMB     40       DPPC     H4Y      HAL2     0.900000E-01   1.00800           0
      5164 MEMB     40       DPPC     C35      CTL2    -0.180000       12.0110           0
      5165 MEMB     40       DPPC     H5X      HAL2     0.900000E-01   1.00800           0
      5166 MEMB     40       DPPC     H5Y      HAL2     0.900000E-01   1.00800           0
      5167 MEMB     40       DPPC     C36      CTL2    -0.180000       12.0110           0
      5168 MEMB     40       DPPC     H6X      HAL2     0.900000E-01   1.00800           0
      5169 MEMB     40       DPPC     H6Y      HAL2     0.900000E-01   1.00800           0
      5170 MEMB     40       DPPC     C37      CTL2    -0.180000       12.0110           0
      5171 MEMB     40       DPPC     H7X      HAL2     0.900000E-01   1.00800           0
      5172 MEMB     40       DPPC     H7Y      HAL2     0.900000E-01   1.00800           0
      5173 MEMB     40       DPPC     C38      CTL2    -0.180000       12.0110           0
      5174 MEMB     40       DPPC     H8X      HAL2     0.900000E-01   1.00800           0
      5175 MEMB     40       DPPC     H8Y      HAL2     0.900000E-01   1.00800           0
      5176 MEMB     40       DPPC     C39      CTL2    -0.180000       12.0110           0
      5177 MEMB     40       DPPC     H9X      HAL2     0.900000E-01   1.00800           0
      5178 MEMB     40       DPPC     H9Y      HAL2     0.900000E-01   1.00800           0
      5179 MEMB     40       DPPC     C310     CTL2    -0.180000       12.0110           0
      5180 MEMB     40       DPPC     H10X     HAL2     0.900000E-01   1.00800           0
      5181 MEMB     40       DPPC     H10Y     HAL2     0.900000E-01   1.00800           0
      5182 MEMB     40       DPPC     C311     CTL2    -0.180000       12.0110           0
      5183 MEMB     40       DPPC     H11X     HAL2     0.900000E-01   1.00800           0
      5184 MEMB     40       DPPC     H11Y     HAL2     0.900000E-01   1.00800           0
      5185 MEMB     40       DPPC     C312     CTL2    -0.180000       12.0110           0
      5186 MEMB     40       DPPC     H12X     HAL2     0.900000E-01   1.00800           0
      5187 MEMB     40       DPPC     H12Y     HAL2     0.900000E-01   1.00800           0
      5188 MEMB     40       DPPC     C313     CTL2    -0.180000       12.0110           0
      5189 MEMB     40       DPPC     H13X     HAL2     0.900000E-01   1.00800           0
      5190 MEMB     40       DPPC     H13Y     HAL2     0.900000E-01   1.00800           0
      5191 MEMB     40       DPPC     C314     CTL2    -0.180000       12.0110           0
      5192 MEMB     40       DPPC     H14X     HAL2     0.900000E-01   1.00800           0
      5193 MEMB     40       DPPC     H14Y     HAL2     0.900000E-01   1.00800           0
      5194 MEMB     40       DPPC     C315     CTL2    -0.180000       12.0110           0
      5195 MEMB     40       DPPC     H15X     HAL2     0.900000E-01   1.00800           0
      5196 MEMB     40       DPPC     H15Y     HAL2     0.900000E-01   1.00800           0
      5197 MEMB     40       DPPC     C316     CTL3    -0.270000       12.0110           0
      5198 MEMB     40       DPPC     H16X     HAL3     0.900000E-01   1.00800           0
      5199 MEMB     40       DPPC     H16Y     HAL3     0.900000E-01   1.00800           0
      5200 MEMB     40       DPPC     H16Z     HAL3     0.900000E-01   1.00800           0
      5201 MEMB     41       DPPC     N        NTL     -0.600000       14.0070           0
      5202 MEMB     41       DPPC     C13      CTL5    -0.350000       12.0110           0
      5203 MEMB     41       DPPC     H13A     HL       0.250000       1.00800           0
      5204 MEMB     41       DPPC     H13B     HL       0.250000       1.00800           0
      5205 MEMB     41       DPPC     H13C     HL       0.250000       1.00800           0
      5206 MEMB     41       DPPC     C14      CTL5    -0.350000       12.0110           0
      5207 MEMB     41       DPPC     H14A     HL       0.250000       1.00800           0
      5208 MEMB     41       DPPC     H14B     HL       0.250000       1.00800           0
      5209 MEMB     41       DPPC     H14C     HL       0.250000       1.00800           0
      5210 MEMB     41       DPPC     C15      CTL5    -0.350000       12.0110           0
      5211 MEMB     41       DPPC     H15A     HL       0.250000       1.00800           0
      5212 MEMB     41       DPPC     H15B     HL       0.250000       1.00800           0
      5213 MEMB     41       DPPC     H15C     HL       0.250000       1.00800           0
      5214 MEMB     41       DPPC     C12      CTL2    -0.100000       12.0110           0
      5215 MEMB     41       DPPC     H12A     HL       0.250000       1.00800           0
      5216 MEMB     41       DPPC     H12B     HL       0.250000       1.00800           0
      5217 MEMB     41       DPPC     C11      CTL2    -0.800000E-01   12.0110           0
      5218 MEMB     41       DPPC     H11A     HAL2     0.900000E-01   1.00800           0
      5219 MEMB     41       DPPC     H11B     HAL2     0.900000E-01   1.00800           0
      5220 MEMB     41       DPPC     P        PL       1.500000       30.9740           0
      5221 MEMB     41       DPPC     O13      O2L     -0.780000       15.9994           0
      5222 MEMB     41       DPPC     O14      O2L     -0.780000       15.9994           0
      5223 MEMB     41       DPPC     O11      OSLP    -0.570000       15.9994           0
      5224 MEMB     41       DPPC     O12      OSLP    -0.570000       15.9994           0
      5225 MEMB     41       DPPC     C1       CTL2    -0.800000E-01   12.0110           0
      5226 MEMB     41       DPPC     HA       HAL2     0.900000E-01   1.00800           0
      5227 MEMB     41       DPPC     HB       HAL2     0.900000E-01   1.00800           0
      5228 MEMB     41       DPPC     C2       CTL1     0.170000       12.0110           0
      5229 MEMB     41       DPPC     HS       HAL1     0.900000E-01   1.00800           0
      5230 MEMB     41       DPPC     O21      OSL     -0.490000       15.9994           0
      5231 MEMB     41       DPPC     C21      CL       0.900000       12.0110           0
      5232 MEMB     41       DPPC     O22      OBL     -0.630000       15.9994           0
      5233 MEMB     41       DPPC     C22      CTL2    -0.220000       12.0110           0
      5234 MEMB     41       DPPC     H2R      HAL2     0.900000E-01   1.00800           0
      5235 MEMB     41       DPPC     H2S      HAL2     0.900000E-01   1.00800           0
      5236 MEMB     41       DPPC     C3       CTL2     0.800000E-01   12.0110           0
      5237 MEMB     41       DPPC     HX       HAL2     0.900000E-01   1.00800           0
      5238 MEMB     41       DPPC     HY       HAL2     0.900000E-01   1.00800           0
      5239 MEMB     41       DPPC     O31      OSL     -0.490000       15.9994           0
      5240 MEMB     41       DPPC     C31      CL       0.900000       12.0110           0
      5241 MEMB     41       DPPC     O32      OBL     -0.630000       15.9994           0
      5242 MEMB     41       DPPC     C32      CTL2    -0.220000       12.0110           0
      5243 MEMB     41       DPPC     H2X      HAL2     0.900000E-01   1.00800           0
      5244 MEMB     41       DPPC     H2Y      HAL2     0.900000E-01   1.00800           0
      5245 MEMB     41       DPPC     C23      CTL2    -0.180000       12.0110           0
      5246 MEMB     41       DPPC     H3R      HAL2     0.900000E-01   1.00800           0
      5247 MEMB     41       DPPC     H3S      HAL2     0.900000E-01   1.00800           0
      5248 MEMB     41       DPPC     C24      CTL2    -0.180000       12.0110           0
      5249 MEMB     41       DPPC     H4R      HAL2     0.900000E-01   1.00800           0
      5250 MEMB     41       DPPC     H4S      HAL2     0.900000E-01   1.00800           0
      5251 MEMB     41       DPPC     C25      CTL2    -0.180000       12.0110           0
      5252 MEMB     41       DPPC     H5R      HAL2     0.900000E-01   1.00800           0
      5253 MEMB     41       DPPC     H5S      HAL2     0.900000E-01   1.00800           0
      5254 MEMB     41       DPPC     C26      CTL2    -0.180000       12.0110           0
      5255 MEMB     41       DPPC     H6R      HAL2     0.900000E-01   1.00800           0
      5256 MEMB     41       DPPC     H6S      HAL2     0.900000E-01   1.00800           0
      5257 MEMB     41       DPPC     C27      CTL2    -0.180000       12.0110           0
      5258 MEMB     41       DPPC     H7R      HAL2     0.900000E-01   1.00800           0
      5259 MEMB     41       DPPC     H7S      HAL2     0.900000E-01   1.00800           0
      5260 MEMB     41       DPPC     C28      CTL2    -0.180000       12.0110           0
      5261 MEMB     41       DPPC     H8R      HAL2     0.900000E-01   1.00800           0
      5262 MEMB     41       DPPC     H8S      HAL2     0.900000E-01   1.00800           0
      5263 MEMB     41       DPPC     C29      CTL2    -0.180000       12.0110           0
      5264 MEMB     41       DPPC     H9R      HAL2     0.900000E-01   1.00800           0
      5265 MEMB     41       DPPC     H9S      HAL2     0.900000E-01   1.00800           0
      5266 MEMB     41       DPPC     C210     CTL2    -0.180000       12.0110           0
      5267 MEMB     41       DPPC     H10R     HAL2     0.900000E-01   1.00800           0
      5268 MEMB     41       DPPC     H10S     HAL2     0.900000E-01   1.00800           0
      5269 MEMB     41       DPPC     C211     CTL2    -0.180000       12.0110           0
      5270 MEMB     41       DPPC     H11R     HAL2     0.900000E-01   1.00800           0
      5271 MEMB     41       DPPC     H11S     HAL2     0.900000E-01   1.00800           0
      5272 MEMB     41       DPPC     C212     CTL2    -0.180000       12.0110           0
      5273 MEMB     41       DPPC     H12R     HAL2     0.900000E-01   1.00800           0
      5274 MEMB     41       DPPC     H12S     HAL2     0.900000E-01   1.00800           0
      5275 MEMB     41       DPPC     C213     CTL2    -0.180000       12.0110           0
      5276 MEMB     41       DPPC     H13R     HAL2     0.900000E-01   1.00800           0
      5277 MEMB     41       DPPC     H13S     HAL2     0.900000E-01   1.00800           0
      5278 MEMB     41       DPPC     C214     CTL2    -0.180000       12.0110           0
      5279 MEMB     41       DPPC     H14R     HAL2     0.900000E-01   1.00800           0
      5280 MEMB     41       DPPC     H14S     HAL2     0.900000E-01   1.00800           0
      5281 MEMB     41       DPPC     C215     CTL2    -0.180000       12.0110           0
      5282 MEMB     41       DPPC     H15R     HAL2     0.900000E-01   1.00800           0
      5283 MEMB     41       DPPC     H15S     HAL2     0.900000E-01   1.00800           0
      5284 MEMB     41       DPPC     C216     CTL3    -0.270000       12.0110           0
      5285 MEMB     41       DPPC     H16R     HAL3     0.900000E-01   1.00800           0
      5286 MEMB     41       DPPC     H16S     HAL3     0.900000E-01   1.00800           0
      5287 MEMB     41       DPPC     H16T     HAL3     0.900000E-01   1.00800           0
      5288 MEMB     41       DPPC     C33      CTL2    -0.180000       12.0110           0
      5289 MEMB     41       DPPC     H3X      HAL2     0.900000E-01   1.00800           0
      5290 MEMB     41       DPPC     H3Y      HAL2     0.900000E-01   1.00800           0
      5291 MEMB     41       DPPC     C34      CTL2    -0.180000       12.0110           0
      5292 MEMB     41       DPPC     H4X      HAL2     0.900000E-01   1.00800           0
      5293 MEMB     41       DPPC     H4Y      HAL2     0.900000E-01   1.00800           0
      5294 MEMB     41       DPPC     C35      CTL2    -0.180000       12.0110           0
      5295 MEMB     41       DPPC     H5X      HAL2     0.900000E-01   1.00800           0
      5296 MEMB     41       DPPC     H5Y      HAL2     0.900000E-01   1.00800           0
      5297 MEMB     41       DPPC     C36      CTL2    -0.180000       12.0110           0
      5298 MEMB     41       DPPC     H6X      HAL2     0.900000E-01   1.00800           0
      5299 MEMB     41       DPPC     H6Y      HAL2     0.900000E-01   1.00800           0
      5300 MEMB     41       DPPC     C37      CTL2    -0.180000       12.0110           0
      5301 MEMB     41       DPPC     H7X      HAL2     0.900000E-01   1.00800           0
      5302 MEMB     41       DPPC     H7Y      HAL2     0.900000E-01   1.00800           0
      5303 MEMB     41       DPPC     C38      CTL2    -0.180000       12.0110           0
      5304 MEMB     41       DPPC     H8X      HAL2     0.900000E-01   1.00800           0
      5305 MEMB     41       DPPC     H8Y      HAL2     0.900000E-01   1.00800           0
      5306 MEMB     41       DPPC     C39      CTL2    -0.180000       12.0110           0
      5307 MEMB     41       DPPC     H9X      HAL2     0.900000E-01   1.00800           0
      5308 MEMB     41       DPPC     H9Y      HAL2     0.900000E-01   1.00800           0
      5309 MEMB     41       DPPC     C310     CTL2    -0.180000       12.0110           0
      5310 MEMB     41       DPPC     H10X     HAL2     0.900000E-01   1.00800           0
      5311 MEMB     41       DPPC     H10Y     HAL2     0.900000E-01   1.00800           0
      5312 MEMB     41       DPPC     C311     CTL2    -0.180000       12.0110           0
      5313 MEMB     41       DPPC     H11X     HAL2     0.900000E-01   1.00800           0
      5314 MEMB     41       DPPC     H11Y     HAL2     0.900000E-01   1.00800           0
      5315 MEMB     41       DPPC     C312     CTL2    -0.180000       12.0110           0
      5316 MEMB     41       DPPC     H12X     HAL2     0.900000E-01   1.00800           0
      5317 MEMB     41       DPPC     H12Y     HAL2     0.900000E-01   1.00800           0
      5318 MEMB     41       DPPC     C313     CTL2    -0.180000       12.0110           0
      5319 MEMB     41       DPPC     H13X     HAL2     0.900000E-01   1.00800           0
      5320 MEMB     41       DPPC     H13Y     HAL2     0.900000E-01   1.00800           0
      5321 MEMB     41       DPPC     C314     CTL2    -0.180000       12.0110           0
      5322 MEMB     41       DPPC     H14X     HAL2     0.900000E-01   1.00800           0
      5323 MEMB     41       DPPC     H14Y     HAL2     0.900000E-01   1.00800           0
      5324 MEMB     41       DPPC     C315     CTL2    -0.180000       12.0110           0
      5325 MEMB     41       DPPC     H15X     HAL2     0.900000E-01   1.00800           0
      5326 MEMB     41       DPPC     H15Y     HAL2     0.900000E-01   1.00800           0
      5327 MEMB     41       DPPC     C316     CTL3    -0.270000       12.0110           0
      5328 MEMB     41       DPPC     H16X     HAL3     0.900000E-01   1.00800           0
      5329 MEMB     41       DPPC     H16Y     HAL3     0.900000E-01   1.00800           0
      5330 MEMB     41       DPPC     H16Z     HAL3     0.900000E-01   1.00800           0
      5331 MEMB     42       DPPC     N        NTL     -0.600000       14.0070           0
      5332 MEMB     42       DPPC     C13      CTL5    -0.350000       12.0110           0
      5333 MEMB     42       DPPC     H13A     HL       0.250000       1.00800           0
      5334 MEMB     42       DPPC     H13B     HL       0.250000       1.00800           0
      5335 MEMB     42       DPPC     H13C     HL       0.250000       1.00800           0
      5336 MEMB     42       DPPC     C14      CTL5    -0.350000       12.0110           0
      5337 MEMB     42       DPPC     H14A     HL       0.250000       1.00800           0
      5338 MEMB     42       DPPC     H14B     HL       0.250000       1.00800           0
      5339 MEMB     42       DPPC     H14C     HL       0.250000       1.00800           0
      5340 MEMB     42       DPPC     C15      CTL5    -0.350000       12.0110           0
      5341 MEMB     42       DPPC     H15A     HL       0.250000       1.00800           0
      5342 MEMB     42       DPPC     H15B     HL       0.250000       1.00800           0
      5343 MEMB     42       DPPC     H15C     HL       0.250000       1.00800           0
      5344 MEMB     42       DPPC     C12      CTL2    -0.100000       12.0110           0
      5345 MEMB     42       DPPC     H12A     HL       0.250000       1.00800           0
      5346 MEMB     42       DPPC     H12B     HL       0.250000       1.00800           0
      5347 MEMB     42       DPPC     C11      CTL2    -0.800000E-01   12.0110           0
      5348 MEMB     42       DPPC     H11A     HAL2     0.900000E-01   1.00800           0
      5349 MEMB     42       DPPC     H11B     HAL2     0.900000E-01   1.00800           0
      5350 MEMB     42       DPPC     P        PL       1.500000       30.9740           0
      5351 MEMB     42       DPPC     O13      O2L     -0.780000       15.9994           0
      5352 MEMB     42       DPPC     O14      O2L     -0.780000       15.9994           0
      5353 MEMB     42       DPPC     O11      OSLP    -0.570000       15.9994           0
      5354 MEMB     42       DPPC     O12      OSLP    -0.570000       15.9994           0
      5355 MEMB     42       DPPC     C1       CTL2    -0.800000E-01   12.0110           0
      5356 MEMB     42       DPPC     HA       HAL2     0.900000E-01   1.00800           0
      5357 MEMB     42       DPPC     HB       HAL2     0.900000E-01   1.00800           0
      5358 MEMB     42       DPPC     C2       CTL1     0.170000       12.0110           0
      5359 MEMB     42       DPPC     HS       HAL1     0.900000E-01   1.00800           0
      5360 MEMB     42       DPPC     O21      OSL     -0.490000       15.9994           0
      5361 MEMB     42       DPPC     C21      CL       0.900000       12.0110           0
      5362 MEMB     42       DPPC     O22      OBL     -0.630000       15.9994           0
      5363 MEMB     42       DPPC     C22      CTL2    -0.220000       12.0110           0
      5364 MEMB     42       DPPC     H2R      HAL2     0.900000E-01   1.00800           0
      5365 MEMB     42       DPPC     H2S      HAL2     0.900000E-01   1.00800           0
      5366 MEMB     42       DPPC     C3       CTL2     0.800000E-01   12.0110           0
      5367 MEMB     42       DPPC     HX       HAL2     0.900000E-01   1.00800           0
      5368 MEMB     42       DPPC     HY       HAL2     0.900000E-01   1.00800           0
      5369 MEMB     42       DPPC     O31      OSL     -0.490000       15.9994           0
      5370 MEMB     42       DPPC     C31      CL       0.900000       12.0110           0
      5371 MEMB     42       DPPC     O32      OBL     -0.630000       15.9994           0
      5372 MEMB     42       DPPC     C32      CTL2    -0.220000       12.0110           0
      5373 MEMB     42       DPPC     H2X      HAL2     0.900000E-01   1.00800           0
      5374 MEMB     42       DPPC     H2Y      HAL2     0.900000E-01   1.00800           0
      5375 MEMB     42       DPPC     C23      CTL2    -0.180000       12.0110           0
      5376 MEMB     42       DPPC     H3R      HAL2     0.900000E-01   1.00800           0
      5377 MEMB     42       DPPC     H3S      HAL2     0.900000E-01   1.00800           0
      5378 MEMB     42       DPPC     C24      CTL2    -0.180000       12.0110           0
      5379 MEMB     42       DPPC     H4R      HAL2     0.900000E-01   1.00800           0
      5380 MEMB     42       DPPC     H4S      HAL2     0.900000E-01   1.00800           0
      5381 MEMB     42       DPPC     C25      CTL2    -0.180000       12.0110           0
      5382 MEMB     42       DPPC     H5R      HAL2     0.900000E-01   1.00800           0
      5383 MEMB     42       DPPC     H5S      HAL2     0.900000E-01   1.00800           0
      5384 MEMB     42       DPPC     C26      CTL2    -0.180000       12.0110           0
      5385 MEMB     42       DPPC     H6R      HAL2     0.900000E-01   1.00800           0
      5386 MEMB     42       DPPC     H6S      HAL2     0.900000E-01   1.00800           0
      5387 MEMB     42       DPPC     C27      CTL2    -0.180000       12.0110           0
      5388 MEMB     42       DPPC     H7R      HAL2     0.900000E-01   1.00800           0
      5389 MEMB     42       DPPC     H7S      HAL2     0.900000E-01   1.00800           0
      5390 MEMB     42       DPPC     C28      CTL2    -0.180000       12.0110           0
      5391 MEMB     42       DPPC     H8R      HAL2     0.900000E-01   1.00800           0
      5392 MEMB     42       DPPC     H8S      HAL2     0.900000E-01   1.00800           0
      5393 MEMB     42       DPPC     C29      CTL2    -0.180000       12.0110           0
      5394 MEMB     42       DPPC     H9R      HAL2     0.900000E-01   1.00800           0
      5395 MEMB     42       DPPC     H9S      HAL2     0.900000E-01   1.00800           0
      5396 MEMB     42       DPPC     C210     CTL2    -0.180000       12.0110           0
      5397 MEMB     42       DPPC     H10R     HAL2     0.900000E-01   1.00800           0
      5398 MEMB     42       DPPC     H10S     HAL2     0.900000E-01   1.00800           0
      5399 MEMB     42       DPPC     C211     CTL2    -0.180000       12.0110           0
      5400 MEMB     42       DPPC     H11R     HAL2     0.900000E-01   1.00800           0
      5401 MEMB     42       DPPC     H11S     HAL2     0.900000E-01   1.00800           0
      5402 MEMB     42       DPPC     C212     CTL2    -0.180000       12.0110           0
      5403 MEMB     42       DPPC     H12R     HAL2     0.900000E-01   1.00800           0
      5404 MEMB     42       DPPC     H12S     HAL2     0.900000E-01   1.00800           0
      5405 MEMB     42       DPPC     C213     CTL2    -0.180000       12.0110           0
      5406 MEMB     42       DPPC     H13R     HAL2     0.900000E-01   1.00800           0
      5407 MEMB     42       DPPC     H13S     HAL2     0.900000E-01   1.00800           0
      5408 MEMB     42       DPPC     C214     CTL2    -0.180000       12.0110           0
      5409 MEMB     42       DPPC     H14R     HAL2     0.900000E-01   1.00800           0
      5410 MEMB     42       DPPC     H14S     HAL2     0.900000E-01   1.00800           0
      5411 MEMB     42       DPPC     C215     CTL2    -0.180000       12.0110           0
      5412 MEMB     42       DPPC     H15R     HAL2     0.900000E-01   1.00800           0
      5413 MEMB     42       DPPC     H15S     HAL2     0.900000E-01   1.00800           0
      5414 MEMB     42       DPPC     C216     CTL3    -0.270000       12.0110           0
      5415 MEMB     42       DPPC     H16R     HAL3     0.900000E-01   1.00800           0
      5416 MEMB     42       DPPC     H16S     HAL3     0.900000E-01   1.00800           0
      5417 MEMB     42       DPPC     H16T     HAL3     0.900000E-01   1.00800           0
      5418 MEMB     42       DPPC     C33      CTL2    -0.180000       12.0110           0
      5419 MEMB     42       DPPC     H3X      HAL2     0.900000E-01   1.00800           0
      5420 MEMB     42       DPPC     H3Y      HAL2     0.900000E-01   1.00800           0
      5421 MEMB     42       DPPC     C34      CTL2    -0.180000       12.0110           0
      5422 MEMB     42       DPPC     H4X      HAL2     0.900000E-01   1.00800           0
      5423 MEMB     42       DPPC     H4Y      HAL2     0.900000E-01   1.00800           0
      5424 MEMB     42       DPPC     C35      CTL2    -0.180000       12.0110           0
      5425 MEMB     42       DPPC     H5X      HAL2     0.900000E-01   1.00800           0
      5426 MEMB     42       DPPC     H5Y      HAL2     0.900000E-01   1.00800           0
      5427 MEMB     42       DPPC     C36      CTL2    -0.180000       12.0110           0
      5428 MEMB     42       DPPC     H6X      HAL2     0.900000E-01   1.00800           0
      5429 MEMB     42       DPPC     H6Y      HAL2     0.900000E-01   1.00800           0
      5430 MEMB     42       DPPC     C37      CTL2    -0.180000       12.0110           0
      5431 MEMB     42       DPPC     H7X      HAL2     0.900000E-01   1.00800           0
      5432 MEMB     42       DPPC     H7Y      HAL2     0.900000E-01   1.00800           0
      5433 MEMB     42       DPPC     C38      CTL2    -0.180000       12.0110           0
      5434 MEMB     42       DPPC     H8X      HAL2     0.900000E-01   1.00800           0
      5435 MEMB     42       DPPC     H8Y      HAL2     0.900000E-01   1.00800           0
      5436 MEMB     42       DPPC     C39      CTL2    -0.180000       12.0110           0
      5437 MEMB     42       DPPC     H9X      HAL2     0.900000E-01   1.00800           0
      5438 MEMB     42       DPPC     H9Y      HAL2     0.900000E-01   1.00800           0
      5439 MEMB     42       DPPC     C310     CTL2    -0.180000       12.0110           0
      5440 MEMB     42       DPPC     H10X     HAL2     0.900000E-01   1.00800           0
      5441 MEMB     42       DPPC     H10Y     HAL2     0.900000E-01   1.00800           0
      5442 MEMB     42       DPPC     C311     CTL2    -0.180000       12.0110           0
      5443 MEMB     42       DPPC     H11X     HAL2     0.900000E-01   1.00800           0
      5444 MEMB     42       DPPC     H11Y     HAL2     0.900000E-01   1.00800           0
      5445 MEMB     42       DPPC     C312     CTL2    -0.180000       12.0110           0
      5446 MEMB     42       DPPC     H12X     HAL2     0.900000E-01   1.00800           0
      5447 MEMB     42       DPPC     H12Y     HAL2     0.900000E-01   1.00800           0
      5448 MEMB     42       DPPC     C313     CTL2    -0.180000       12.0110           0
      5449 MEMB     42       DPPC     H13X     HAL2     0.900000E-01   1.00800           0
      5450 MEMB     42       DPPC     H13Y     HAL2     0.900000E-01   1.00800           0
      5451 MEMB     42       DPPC     C314     CTL2    -0.180000       12.0110           0
      5452 MEMB     42       DPPC     H14X     HAL2     0.900000E-01   1.00800           0
      5453 MEMB     42       DPPC     H14Y     HAL2     0.900000E-01   1.00800           0
      5454 MEMB     42       DPPC     C315     CTL2    -0.180000       12.0110           0
      5455 MEMB     42       DPPC     H15X     HAL2     0.900000E-01   1.00800           0
      5456 MEMB     42       DPPC     H15Y     HAL2     0.900000E-01   1.00800           0
      5457 MEMB     42       DPPC     C316     CTL3    -0.270000       12.0110           0
      5458 MEMB     42       DPPC     H16X     HAL3     0.900000E-01   1.00800           0
      5459 MEMB     42       DPPC     H16Y     HAL3     0.900000E-01   1.00800           0
      5460 MEMB     42       DPPC     H16Z     HAL3     0.900000E-01   1.00800           0
      5461 MEMB     43       DPPC     N        NTL     -0.600000       14.0070           0
      5462 MEMB     43       DPPC     C13      CTL5    -0.350000       12.0110           0
      5463 MEMB     43       DPPC     H13A     HL       0.250000       1.00800           0
      5464 MEMB     43       DPPC     H13B     HL       0.250000       1.00800           0
      5465 MEMB     43       DPPC     H13C     HL       0.250000       1.00800           0
      5466 MEMB     43       DPPC     C14      CTL5    -0.350000       12.0110           0
      5467 MEMB     43       DPPC     H14A     HL       0.250000       1.00800           0
      5468 MEMB     43       DPPC     H14B     HL       0.250000       1.00800           0
      5469 MEMB     43       DPPC     H14C     HL       0.250000       1.00800           0
      5470 MEMB     43       DPPC     C15      CTL5    -0.350000       12.0110           0
      5471 MEMB     43       DPPC     H15A     HL       0.250000       1.00800           0
      5472 MEMB     43       DPPC     H15B     HL       0.250000       1.00800           0
      5473 MEMB     43       DPPC     H15C     HL       0.250000       1.00800           0
      5474 MEMB     43       DPPC     C12      CTL2    -0.100000       12.0110           0
      5475 MEMB     43       DPPC     H12A     HL       0.250000       1.00800           0
      5476 MEMB     43       DPPC     H12B     HL       0.250000       1.00800           0
      5477 MEMB     43       DPPC     C11      CTL2    -0.800000E-01   12.0110           0
      5478 MEMB     43       DPPC     H11A     HAL2     0.900000E-01   1.00800           0
      5479 MEMB     43       DPPC     H11B     HAL2     0.900000E-01   1.00800           0
      5480 MEMB     43       DPPC     P        PL       1.500000       30.9740           0
      5481 MEMB     43       DPPC     O13      O2L     -0.780000       15.9994           0
      5482 MEMB     43       DPPC     O14      O2L     -0.780000       15.9994           0
      5483 MEMB     43       DPPC     O11      OSLP    -0.570000       15.9994           0
      5484 MEMB     43       DPPC     O12      OSLP    -0.570000       15.9994           0
      5485 MEMB     43       DPPC     C1       CTL2    -0.800000E-01   12.0110           0
      5486 MEMB     43       DPPC     HA       HAL2     0.900000E-01   1.00800           0
      5487 MEMB     43       DPPC     HB       HAL2     0.900000E-01   1.00800           0
      5488 MEMB     43       DPPC     C2       CTL1     0.170000       12.0110           0
      5489 MEMB     43       DPPC     HS       HAL1     0.900000E-01   1.00800           0
      5490 MEMB     43       DPPC     O21      OSL     -0.490000       15.9994           0
      5491 MEMB     43       DPPC     C21      CL       0.900000       12.0110           0
      5492 MEMB     43       DPPC     O22      OBL     -0.630000       15.9994           0
      5493 MEMB     43       DPPC     C22      CTL2    -0.220000       12.0110           0
      5494 MEMB     43       DPPC     H2R      HAL2     0.900000E-01   1.00800           0
      5495 MEMB     43       DPPC     H2S      HAL2     0.900000E-01   1.00800           0
      5496 MEMB     43       DPPC     C3       CTL2     0.800000E-01   12.0110           0
      5497 MEMB     43       DPPC     HX       HAL2     0.900000E-01   1.00800           0
      5498 MEMB     43       DPPC     HY       HAL2     0.900000E-01   1.00800           0
      5499 MEMB     43       DPPC     O31      OSL     -0.490000       15.9994           0
      5500 MEMB     43       DPPC     C31      CL       0.900000       12.0110           0
      5501 MEMB     43       DPPC     O32      OBL     -0.630000       15.9994           0
      5502 MEMB     43       DPPC     C32      CTL2    -0.220000       12.0110           0
      5503 MEMB     43       DPPC     H2X      HAL2     0.900000E-01   1.00800           0
      5504 MEMB     43       DPPC     H2Y      HAL2     0.900000E-01   1.00800           0
      5505 MEMB     43       DPPC     C23      CTL2    -0.180000       12.0110           0
      5506 MEMB     43       DPPC     H3R      HAL2     0.900000E-01   1.00800           0
      5507 MEMB     43       DPPC     H3S      HAL2     0.900000E-01   1.00800           0
      5508 MEMB     43       DPPC     C24      CTL2    -0.180000       12.0110           0
      5509 MEMB     43       DPPC     H4R      HAL2     0.900000E-01   1.00800           0
      5510 MEMB     43       DPPC     H4S      HAL2     0.900000E-01   1.00800           0
      5511 MEMB     43       DPPC     C25      CTL2    -0.180000       12.0110           0
      5512 MEMB     43       DPPC     H5R      HAL2     0.900000E-01   1.00800           0
      5513 MEMB     43       DPPC     H5S      HAL2     0.900000E-01   1.00800           0
      5514 MEMB     43       DPPC     C26      CTL2    -0.180000       12.0110           0
      5515 MEMB     43       DPPC     H6R      HAL2     0.900000E-01   1.00800           0
      5516 MEMB     43       DPPC     H6S      HAL2     0.900000E-01   1.00800           0
      5517 MEMB     43       DPPC     C27      CTL2    -0.180000       12.0110           0
      5518 MEMB     43       DPPC     H7R      HAL2     0.900000E-01   1.00800           0
      5519 MEMB     43       DPPC     H7S      HAL2     0.900000E-01   1.00800           0
      5520 MEMB     43       DPPC     C28      CTL2    -0.180000       12.0110           0
      5521 MEMB     43       DPPC     H8R      HAL2     0.900000E-01   1.00800           0
      5522 MEMB     43       DPPC     H8S      HAL2     0.900000E-01   1.00800           0
      5523 MEMB     43       DPPC     C29      CTL2    -0.180000       12.0110           0
      5524 MEMB     43       DPPC     H9R      HAL2     0.900000E-01   1.00800           0
      5525 MEMB     43       DPPC     H9S      HAL2     0.900000E-01   1.00800           0
      5526 MEMB     43       DPPC     C210     CTL2    -0.180000       12.0110           0
      5527 MEMB     43       DPPC     H10R     HAL2     0.900000E-01   1.00800           0
      5528 MEMB     43       DPPC     H10S     HAL2     0.900000E-01   1.00800           0
      5529 MEMB     43       DPPC     C211     CTL2    -0.180000       12.0110           0
      5530 MEMB     43       DPPC     H11R     HAL2     0.900000E-01   1.00800           0
      5531 MEMB     43       DPPC     H11S     HAL2     0.900000E-01   1.00800           0
      5532 MEMB     43       DPPC     C212     CTL2    -0.180000       12.0110           0
      5533 MEMB     43       DPPC     H12R     HAL2     0.900000E-01   1.00800           0
      5534 MEMB     43       DPPC     H12S     HAL2     0.900000E-01   1.00800           0
      5535 MEMB     43       DPPC     C213     CTL2    -0.180000       12.0110           0
      5536 MEMB     43       DPPC     H13R     HAL2     0.900000E-01   1.00800           0
      5537 MEMB     43       DPPC     H13S     HAL2     0.900000E-01   1.00800           0
      5538 MEMB     43       DPPC     C214     CTL2    -0.180000       12.0110           0
      5539 MEMB     43       DPPC     H14R     HAL2     0.900000E-01   1.00800           0
      5540 MEMB     43       DPPC     H14S     HAL2     0.900000E-01   1.00800           0
      5541 MEMB     43       DPPC     C215     CTL2    -0.180000       12.0110           0
      5542 MEMB     43       DPPC     H15R     HAL2     0.900000E-01   1.00800           0
      5543 MEMB     43       DPPC     H15S     HAL2     0.900000E-01   1.00800           0
      5544 MEMB     43       DPPC     C216     CTL3    -0.270000       12.0110           0
      5545 MEMB     43       DPPC     H16R     HAL3     0.900000E-01   1.00800           0
      5546 MEMB     43       DPPC     H16S     HAL3     0.900000E-01   1.00800           0
      5547 MEMB     43       DPPC     H16T     HAL3     0.900000E-01   1.00800           0
      5548 MEMB     43       DPPC     C33      CTL2    -0.180000       12.0110           0
      5549 MEMB     43       DPPC     H3X      HAL2     0.900000E-01   1.00800           0
      5550 MEMB     43       DPPC     H3Y      HAL2     0.900000E-01   1.00800           0
      5551 MEMB     43       DPPC     C34      CTL2    -0.180000       12.0110           0
      5552 MEMB     43       DPPC     H4X      HAL2     0.900000E-01   1.00800           0
      5553 MEMB     43       DPPC     H4Y      HAL2     0.900000E-01   1.00800           0
      5554 MEMB     43       DPPC     C35      CTL2    -0.180000       12.0110           0
      5555 MEMB     43       DPPC     H5X      HAL2     0.900000E-01   1.00800           0
      5556 MEMB     43       DPPC     H5Y      HAL2     0.900000E-01   1.00800           0
      5557 MEMB     43       DPPC     C36      CTL2    -0.180000       12.0110           0
      5558 MEMB     43       DPPC     H6X      HAL2     0.900000E-01   1.00800           0
      5559 MEMB     43       DPPC     H6Y      HAL2     0.900000E-01   1.00800           0
      5560 MEMB     43       DPPC     C37      CTL2    -0.180000       12.0110           0
      5561 MEMB     43       DPPC     H7X      HAL2     0.900000E-01   1.00800           0
      5562 MEMB     43       DPPC     H7Y      HAL2     0.900000E-01   1.00800           0
      5563 MEMB     43       DPPC     C38      CTL2    -0.180000       12.0110           0
      5564 MEMB     43       DPPC     H8X      HAL2     0.900000E-01   1.00800           0
      5565 MEMB     43       DPPC     H8Y      HAL2     0.900000E-01   1.00800           0
      5566 MEMB     43       DPPC     C39      CTL2    -0.180000       12.0110           0
      5567 MEMB     43       DPPC     H9X      HAL2     0.900000E-01   1.00800           0
      5568 MEMB     43       DPPC     H9Y      HAL2     0.900000E-01   1.00800           0
      5569 MEMB     43       DPPC     C310     CTL2    -0.180000       12.0110           0
      5570 MEMB     43       DPPC     H10X     HAL2     0.900000E-01   1.00800           0
      5571 MEMB     43       DPPC     H10Y     HAL2     0.900000E-01   1.00800           0
      5572 MEMB     43       DPPC     C311     CTL2    -0.180000       12.0110           0
      5573 MEMB     43       DPPC     H11X     HAL2     0.900000E-01   1.00800           0
      5574 MEMB     43       DPPC     H11Y     HAL2     0.900000E-01   1.00800           0
      5575 MEMB     43       DPPC     C312     CTL2    -0.180000       12.0110           0
      5576 MEMB     43       DPPC     H12X     HAL2     0.900000E-01   1.00800           0
      5577 MEMB     43       DPPC     H12Y     HAL2     0.900000E-01   1.00800           0
      5578 MEMB     43       DPPC     C313     CTL2    -0.180000       12.0110           0
      5579 MEMB     43       DPPC     H13X     HAL2     0.900000E-01   1.00800           0
      5580 MEMB     43       DPPC     H13Y     HAL2     0.900000E-01   1.00800           0
      5581 MEMB     43       DPPC     C314     CTL2    -0.180000       12.0110           0
      5582 MEMB     43       DPPC     H14X     HAL2     0.900000E-01   1.00800           0
      5583 MEMB     43       DPPC     H14Y     HAL2     0.900000E-01   1.00800           0
      5584 MEMB     43       DPPC     C315     CTL2    -0.180000       12.0110           0
      5585 MEMB     43       DPPC     H15X     HAL2     0.900000E-01   1.00800           0
      5586 MEMB     43       DPPC     H15Y     HAL2     0.900000E-01   1.00800           0
      5587 MEMB     43       DPPC     C316     CTL3    -0.270000       12.0110           0
      5588 MEMB     43       DPPC     H16X     HAL3     0.900000E-01   1.00800           0
      5589 MEMB     43       DPPC     H16Y     HAL3     0.900000E-01   1.00800           0
      5590 MEMB     43       DPPC     H16Z     HAL3     0.900000E-01   1.00800           0
      5591 MEMB     44       DPPC     N        NTL     -0.600000       14.0070           0
      5592 MEMB     44       DPPC     C13      CTL5    -0.350000       12.0110           0
      5593 MEMB     44       DPPC     H13A     HL       0.250000       1.00800           0
      5594 MEMB     44       DPPC     H13B     HL       0.250000       1.00800           0
      5595 MEMB     44       DPPC     H13C     HL       0.250000       1.00800           0
      5596 MEMB     44       DPPC     C14      CTL5    -0.350000       12.0110           0
      5597 MEMB     44       DPPC     H14A     HL       0.250000       1.00800           0
      5598 MEMB     44       DPPC     H14B     HL       0.250000       1.00800           0
      5599 MEMB     44       DPPC     H14C     HL       0.250000       1.00800           0
      5600 MEMB     44       DPPC     C15      CTL5    -0.350000       12.0110           0
      5601 MEMB     44       DPPC     H15A     HL       0.250000       1.00800           0
      5602 MEMB     44       DPPC     H15B     HL       0.250000       1.00800           0
      5603 MEMB     44       DPPC     H15C     HL       0.250000       1.00800           0
      5604 MEMB     44       DPPC     C12      CTL2    -0.100000       12.0110           0
      5605 MEMB     44       DPPC     H12A     HL       0.250000       1.00800           0
      5606 MEMB     44       DPPC     H12B     HL       0.250000       1.00800           0
      5607 MEMB     44       DPPC     C11      CTL2    -0.800000E-01   12.0110           0
      5608 MEMB     44       DPPC     H11A     HAL2     0.900000E-01   1.00800           0
      5609 MEMB     44       DPPC     H11B     HAL2     0.900000E-01   1.00800           0
      5610 MEMB     44       DPPC     P        PL       1.500000       30.9740           0
      5611 MEMB     44       DPPC     O13      O2L     -0.780000       15.9994           0
      5612 MEMB     44       DPPC     O14      O2L     -0.780000       15.9994           0
      5613 MEMB     44       DPPC     O11      OSLP    -0.570000       15.9994           0
      5614 MEMB     44       DPPC     O12      OSLP    -0.570000       15.9994           0
      5615 MEMB     44       DPPC     C1       CTL2    -0.800000E-01   12.0110           0
      5616 MEMB     44       DPPC     HA       HAL2     0.900000E-01   1.00800           0
      5617 MEMB     44       DPPC     HB       HAL2     0.900000E-01   1.00800           0
      5618 MEMB     44       DPPC     C2       CTL1     0.170000       12.0110           0
      5619 MEMB     44       DPPC     HS       HAL1     0.900000E-01   1.00800           0
      5620 MEMB     44       DPPC     O21      OSL     -0.490000       15.9994           0
      5621 MEMB     44       DPPC     C21      CL       0.900000       12.0110           0
      5622 MEMB     44       DPPC     O22      OBL     -0.630000       15.9994           0
      5623 MEMB     44       DPPC     C22      CTL2    -0.220000       12.0110           0
      5624 MEMB     44       DPPC     H2R      HAL2     0.900000E-01   1.00800           0
      5625 MEMB     44       DPPC     H2S      HAL2     0.900000E-01   1.00800           0
      5626 MEMB     44       DPPC     C3       CTL2     0.800000E-01   12.0110           0
      5627 MEMB     44       DPPC     HX       HAL2     0.900000E-01   1.00800           0
      5628 MEMB     44       DPPC     HY       HAL2     0.900000E-01   1.00800           0
      5629 MEMB     44       DPPC     O31      OSL     -0.490000       15.9994           0
      5630 MEMB     44       DPPC     C31      CL       0.900000       12.0110           0
      5631 MEMB     44       DPPC     O32      OBL     -0.630000       15.9994           0
      5632 MEMB     44       DPPC     C32      CTL2    -0.220000       12.0110           0
      5633 MEMB     44       DPPC     H2X      HAL2     0.900000E-01   1.00800           0
      5634 MEMB     44       DPPC     H2Y      HAL2     0.900000E-01   1.00800           0
      5635 MEMB     44       DPPC     C23      CTL2    -0.180000       12.0110           0
      5636 MEMB     44       DPPC     H3R      HAL2     0.900000E-01   1.00800           0
      5637 MEMB     44       DPPC     H3S      HAL2     0.900000E-01   1.00800           0
      5638 MEMB     44       DPPC     C24      CTL2    -0.180000       12.0110           0
      5639 MEMB     44       DPPC     H4R      HAL2     0.900000E-01   1.00800           0
      5640 MEMB     44       DPPC     H4S      HAL2     0.900000E-01   1.00800           0
      5641 MEMB     44       DPPC     C25      CTL2    -0.180000       12.0110           0
      5642 MEMB     44       DPPC     H5R      HAL2     0.900000E-01   1.00800           0
      5643 MEMB     44       DPPC     H5S      HAL2     0.900000E-01   1.00800           0
      5644 MEMB     44       DPPC     C26      CTL2    -0.180000       12.0110           0
      5645 MEMB     44       DPPC     H6R      HAL2     0.900000E-01   1.00800           0
      5646 MEMB     44       DPPC     H6S      HAL2     0.900000E-01   1.00800           0
      5647 MEMB     44       DPPC     C27      CTL2    -0.180000       12.0110           0
      5648 MEMB     44       DPPC     H7R      HAL2     0.900000E-01   1.00800           0
      5649 MEMB     44       DPPC     H7S      HAL2     0.900000E-01   1.00800           0
      5650 MEMB     44       DPPC     C28      CTL2    -0.180000       12.0110           0
      5651 MEMB     44       DPPC     H8R      HAL2     0.900000E-01   1.00800           0
      5652 MEMB     44       DPPC     H8S      HAL2     0.900000E-01   1.00800           0
      5653 MEMB     44       DPPC     C29      CTL2    -0.180000       12.0110           0
      5654 MEMB     44       DPPC     H9R      HAL2     0.900000E-01   1.00800           0
      5655 MEMB     44       DPPC     H9S      HAL2     0.900000E-01   1.00800           0
      5656 MEMB     44       DPPC     C210     CTL2    -0.180000       12.0110           0
      5657 MEMB     44       DPPC     H10R     HAL2     0.900000E-01   1.00800           0
      5658 MEMB     44       DPPC     H10S     HAL2     0.900000E-01   1.00800           0
      5659 MEMB     44       DPPC     C211     CTL2    -0.180000       12.0110           0
      5660 MEMB     44       DPPC     H11R     HAL2     0.900000E-01   1.00800           0
      5661 MEMB     44       DPPC     H11S     HAL2     0.900000E-01   1.00800           0
      5662 MEMB     44       DPPC     C212     CTL2    -0.180000       12.0110           0
      5663 MEMB     44       DPPC     H12R     HAL2     0.900000E-01   1.00800           0
      5664 MEMB     44       DPPC     H12S     HAL2     0.900000E-01   1.00800           0
      5665 MEMB     44       DPPC     C213     CTL2    -0.180000       12.0110           0
      5666 MEMB     44       DPPC     H13R     HAL2     0.900000E-01   1.00800           0
      5667 MEMB     44       DPPC     H13S     HAL2     0.900000E-01   1.00800           0
      5668 MEMB     44       DPPC     C214     CTL2    -0.180000       12.0110           0
      5669 MEMB     44       DPPC     H14R     HAL2     0.900000E-01   1.00800           0
      5670 MEMB     44       DPPC     H14S     HAL2     0.900000E-01   1.00800           0
      5671 MEMB     44       DPPC     C215     CTL2    -0.180000       12.0110           0
      5672 MEMB     44       DPPC     H15R     HAL2     0.900000E-01   1.00800           0
      5673 MEMB     44       DPPC     H15S     HAL2     0.900000E-01   1.00800           0
      5674 MEMB     44       DPPC     C216     CTL3    -0.270000       12.0110           0
      5675 MEMB     44       DPPC     H16R     HAL3     0.900000E-01   1.00800           0
      5676 MEMB     44       DPPC     H16S     HAL3     0.900000E-01   1.00800           0
      5677 MEMB     44       DPPC     H16T     HAL3     0.900000E-01   1.00800           0
      5678 MEMB     44       DPPC     C33      CTL2    -0.180000       12.0110           0
      5679 MEMB     44       DPPC     H3X      HAL2     0.900000E-01   1.00800           0
      5680 MEMB     44       DPPC     H3Y      HAL2     0.900000E-01   1.00800           0
      5681 MEMB     44       DPPC     C34      CTL2    -0.180000       12.0110           0
      5682 MEMB     44       DPPC     H4X      HAL2     0.900000E-01   1.00800           0
      5683 MEMB     44       DPPC     H4Y      HAL2     0.900000E-01   1.00800           0
      5684 MEMB     44       DPPC     C35      CTL2    -0.180000       12.0110           0
      5685 MEMB     44       DPPC     H5X      HAL2     0.900000E-01   1.00800           0
      5686 MEMB     44       DPPC     H5Y      HAL2     0.900000E-01   1.00800           0
      5687 MEMB     44       DPPC     C36      CTL2    -0.180000       12.0110           0
      5688 MEMB     44       DPPC     H6X      HAL2     0.900000E-01   1.00800           0
      5689 MEMB     44       DPPC     H6Y      HAL2     0.900000E-01   1.00800           0
      5690 MEMB     44       DPPC     C37      CTL2    -0.180000       12.0110           0
      5691 MEMB     44       DPPC     H7X      HAL2     0.900000E-01   1.00800           0
      5692 MEMB     44       DPPC     H7Y      HAL2     0.900000E-01   1.00800           0
      5693 MEMB     44       DPPC     C38      CTL2    -0.180000       12.0110           0
      5694 MEMB     44       DPPC     H8X      HAL2     0.900000E-01   1.00800           0
      5695 MEMB     44       DPPC     H8Y      HAL2     0.900000E-01   1.00800           0
      5696 MEMB     44       DPPC     C39      CTL2    -0.180000       12.0110           0
      5697 MEMB     44       DPPC     H9X      HAL2     0.900000E-01   1.00800           0
      5698 MEMB     44       DPPC     H9Y      HAL2     0.900000E-01   1.00800           0
      5699 MEMB     44       DPPC     C310     CTL2    -0.180000       12.0110           0
      5700 MEMB     44       DPPC     H10X     HAL2     0.900000E-01   1.00800           0
      5701 MEMB     44       DPPC     H10Y     HAL2     0.900000E-01   1.00800           0
      5702 MEMB     44       DPPC     C311     CTL2    -0.180000       12.0110           0
      5703 MEMB     44       DPPC     H11X     HAL2     0.900000E-01   1.00800           0
      5704 MEMB     44       DPPC     H11Y     HAL2     0.900000E-01   1.00800           0
      5705 MEMB     44       DPPC     C312     CTL2    -0.180000       12.0110           0
      5706 MEMB     44       DPPC     H12X     HAL2     0.900000E-01   1.00800           0
      5707 MEMB     44       DPPC     H12Y     HAL2     0.900000E-01   1.00800           0
      5708 MEMB     44       DPPC     C313     CTL2    -0.180000       12.0110           0
      5709 MEMB     44       DPPC     H13X     HAL2     0.900000E-01   1.00800           0
      5710 MEMB     44       DPPC     H13Y     HAL2     0.900000E-01   1.00800           0
      5711 MEMB     44       DPPC     C314     CTL2    -0.180000       12.0110           0
      5712 MEMB     44       DPPC     H14X     HAL2     0.900000E-01   1.00800           0
      5713 MEMB     44       DPPC     H14Y     HAL2     0.900000E-01   1.00800           0
      5714 MEMB     44       DPPC     C315     CTL2    -0.180000       12.0110           0
      5715 MEMB     44       DPPC     H15X     HAL2     0.900000E-01   1.00800           0
      5716 MEMB     44       DPPC     H15Y     HAL2     0.900000E-01   1.00800           0
      5717 MEMB     44       DPPC     C316     CTL3    -0.270000       12.0110           0
      5718 MEMB     44       DPPC     H16X     HAL3     0.900000E-01   1.00800           0
      5719 MEMB     44       DPPC     H16Y     HAL3     0.900000E-01   1.00800           0
      5720 MEMB     44       DPPC     H16Z     HAL3     0.900000E-01   1.00800           0
      5721 MEMB     45       DPPC     N        NTL     -0.600000       14.0070           0
      5722 MEMB     45       DPPC     C13      CTL5    -0.350000       12.0110           0
      5723 MEMB     45       DPPC     H13A     HL       0.250000       1.00800           0
      5724 MEMB     45       DPPC     H13B     HL       0.250000       1.00800           0
      5725 MEMB     45       DPPC     H13C     HL       0.250000       1.00800           0
      5726 MEMB     45       DPPC     C14      CTL5    -0.350000       12.0110           0
      5727 MEMB     45       DPPC     H14A     HL       0.250000       1.00800           0
      5728 MEMB     45       DPPC     H14B     HL       0.250000       1.00800           0
      5729 MEMB     45       DPPC     H14C     HL       0.250000       1.00800           0
      5730 MEMB     45       DPPC     C15      CTL5    -0.350000       12.0110           0
      5731 MEMB     45       DPPC     H15A     HL       0.250000       1.00800           0
      5732 MEMB     45       DPPC     H15B     HL       0.250000       1.00800           0
      5733 MEMB     45       DPPC     H15C     HL       0.250000       1.00800           0
      5734 MEMB     45       DPPC     C12      CTL2    -0.100000       12.0110           0
      5735 MEMB     45       DPPC     H12A     HL       0.250000       1.00800           0
      5736 MEMB     45       DPPC     H12B     HL       0.250000       1.00800           0
      5737 MEMB     45       DPPC     C11      CTL2    -0.800000E-01   12.0110           0
      5738 MEMB     45       DPPC     H11A     HAL2     0.900000E-01   1.00800           0
      5739 MEMB     45       DPPC     H11B     HAL2     0.900000E-01   1.00800           0
      5740 MEMB     45       DPPC     P        PL       1.500000       30.9740           0
      5741 MEMB     45       DPPC     O13      O2L     -0.780000       15.9994           0
      5742 MEMB     45       DPPC     O14      O2L     -0.780000       15.9994           0
      5743 MEMB     45       DPPC     O11      OSLP    -0.570000       15.9994           0
      5744 MEMB     45       DPPC     O12      OSLP    -0.570000       15.9994           0
      5745 MEMB     45       DPPC     C1       CTL2    -0.800000E-01   12.0110           0
      5746 MEMB     45       DPPC     HA       HAL2     0.900000E-01   1.00800           0
      5747 MEMB     45       DPPC     HB       HAL2     0.900000E-01   1.00800           0
      5748 MEMB     45       DPPC     C2       CTL1     0.170000       12.0110           0
      5749 MEMB     45       DPPC     HS       HAL1     0.900000E-01   1.00800           0
      5750 MEMB     45       DPPC     O21      OSL     -0.490000       15.9994           0
      5751 MEMB     45       DPPC     C21      CL       0.900000       12.0110           0
      5752 MEMB     45       DPPC     O22      OBL     -0.630000       15.9994           0
      5753 MEMB     45       DPPC     C22      CTL2    -0.220000       12.0110           0
      5754 MEMB     45       DPPC     H2R      HAL2     0.900000E-01   1.00800           0
      5755 MEMB     45       DPPC     H2S      HAL2     0.900000E-01   1.00800           0
      5756 MEMB     45       DPPC     C3       CTL2     0.800000E-01   12.0110           0
      5757 MEMB     45       DPPC     HX       HAL2     0.900000E-01   1.00800           0
      5758 MEMB     45       DPPC     HY       HAL2     0.900000E-01   1.00800           0
      5759 MEMB     45       DPPC     O31      OSL     -0.490000       15.9994           0
      5760 MEMB     45       DPPC     C31      CL       0.900000       12.0110           0
      5761 MEMB     45       DPPC     O32      OBL     -0.630000       15.9994           0
      5762 MEMB     45       DPPC     C32      CTL2    -0.220000       12.0110           0
      5763 MEMB     45       DPPC     H2X      HAL2     0.900000E-01   1.00800           0
      5764 MEMB     45       DPPC     H2Y      HAL2     0.900000E-01   1.00800           0
      5765 MEMB     45       DPPC     C23      CTL2    -0.180000       12.0110           0
      5766 MEMB     45       DPPC     H3R      HAL2     0.900000E-01   1.00800           0
      5767 MEMB     45       DPPC     H3S      HAL2     0.900000E-01   1.00800           0
      5768 MEMB     45       DPPC     C24      CTL2    -0.180000       12.0110           0
      5769 MEMB     45       DPPC     H4R      HAL2     0.900000E-01   1.00800           0
      5770 MEMB     45       DPPC     H4S      HAL2     0.900000E-01   1.00800           0
      5771 MEMB     45       DPPC     C25      CTL2    -0.180000       12.0110           0
      5772 MEMB     45       DPPC     H5R      HAL2     0.900000E-01   1.00800           0
      5773 MEMB     45       DPPC     H5S      HAL2     0.900000E-01   1.00800           0
      5774 MEMB     45       DPPC     C26      CTL2    -0.180000       12.0110           0
      5775 MEMB     45       DPPC     H6R      HAL2     0.900000E-01   1.00800           0
      5776 MEMB     45       DPPC     H6S      HAL2     0.900000E-01   1.00800           0
      5777 MEMB     45       DPPC     C27      CTL2    -0.180000       12.0110           0
      5778 MEMB     45       DPPC     H7R      HAL2     0.900000E-01   1.00800           0
      5779 MEMB     45       DPPC     H7S      HAL2     0.900000E-01   1.00800           0
      5780 MEMB     45       DPPC     C28      CTL2    -0.180000       12.0110           0
      5781 MEMB     45       DPPC     H8R      HAL2     0.900000E-01   1.00800           0
      5782 MEMB     45       DPPC     H8S      HAL2     0.900000E-01   1.00800           0
      5783 MEMB     45       DPPC     C29      CTL2    -0.180000       12.0110           0
      5784 MEMB     45       DPPC     H9R      HAL2     0.900000E-01   1.00800           0
      5785 MEMB     45       DPPC     H9S      HAL2     0.900000E-01   1.00800           0
      5786 MEMB     45       DPPC     C210     CTL2    -0.180000       12.0110           0
      5787 MEMB     45       DPPC     H10R     HAL2     0.900000E-01   1.00800           0
      5788 MEMB     45       DPPC     H10S     HAL2     0.900000E-01   1.00800           0
      5789 MEMB     45       DPPC     C211     CTL2    -0.180000       12.0110           0
      5790 MEMB     45       DPPC     H11R     HAL2     0.900000E-01   1.00800           0
      5791 MEMB     45       DPPC     H11S     HAL2     0.900000E-01   1.00800           0
      5792 MEMB     45       DPPC     C212     CTL2    -0.180000       12.0110           0
      5793 MEMB     45       DPPC     H12R     HAL2     0.900000E-01   1.00800           0
      5794 MEMB     45       DPPC     H12S     HAL2     0.900000E-01   1.00800           0
      5795 MEMB     45       DPPC     C213     CTL2    -0.180000       12.0110           0
      5796 MEMB     45       DPPC     H13R     HAL2     0.900000E-01   1.00800           0
      5797 MEMB     45       DPPC     H13S     HAL2     0.900000E-01   1.00800           0
      5798 MEMB     45       DPPC     C214     CTL2    -0.180000       12.0110           0
      5799 MEMB     45       DPPC     H14R     HAL2     0.900000E-01   1.00800           0
      5800 MEMB     45       DPPC     H14S     HAL2     0.900000E-01   1.00800           0
      5801 MEMB     45       DPPC     C215     CTL2    -0.180000       12.0110           0
      5802 MEMB     45       DPPC     H15R     HAL2     0.900000E-01   1.00800           0
      5803 MEMB     45       DPPC     H15S     HAL2     0.900000E-01   1.00800           0
      5804 MEMB     45       DPPC     C216     CTL3    -0.270000       12.0110           0
      5805 MEMB     45       DPPC     H16R     HAL3     0.900000E-01   1.00800           0
      5806 MEMB     45       DPPC     H16S     HAL3     0.900000E-01   1.00800           0
      5807 MEMB     45       DPPC     H16T     HAL3     0.900000E-01   1.00800           0
      5808 MEMB     45       DPPC     C33      CTL2    -0.180000       12.0110           0
      5809 MEMB     45       DPPC     H3X      HAL2     0.900000E-01   1.00800           0
      5810 MEMB     45       DPPC     H3Y      HAL2     0.900000E-01   1.00800           0
      5811 MEMB     45       DPPC     C34      CTL2    -0.180000       12.0110           0
      5812 MEMB     45       DPPC     H4X      HAL2     0.900000E-01   1.00800           0
      5813 MEMB     45       DPPC     H4Y      HAL2     0.900000E-01   1.00800           0
      5814 MEMB     45       DPPC     C35      CTL2    -0.180000       12.0110           0
      5815 MEMB     45       DPPC     H5X      HAL2     0.900000E-01   1.00800           0
      5816 MEMB     45       DPPC     H5Y      HAL2     0.900000E-01   1.00800           0
      5817 MEMB     45       DPPC     C36      CTL2    -0.180000       12.0110           0
      5818 MEMB     45       DPPC     H6X      HAL2     0.900000E-01   1.00800           0
      5819 MEMB     45       DPPC     H6Y      HAL2     0.900000E-01   1.00800           0
      5820 MEMB     45       DPPC     C37      CTL2    -0.180000       12.0110           0
      5821 MEMB     45       DPPC     H7X      HAL2     0.900000E-01   1.00800           0
      5822 MEMB     45       DPPC     H7Y      HAL2     0.900000E-01   1.00800           0
      5823 MEMB     45       DPPC     C38      CTL2    -0.180000       12.0110           0
      5824 MEMB     45       DPPC     H8X      HAL2     0.900000E-01   1.00800           0
      5825 MEMB     45       DPPC     H8Y      HAL2     0.900000E-01   1.00800           0
      5826 MEMB     45       DPPC     C39      CTL2    -0.180000       12.0110           0
      5827 MEMB     45       DPPC     H9X      HAL2     0.900000E-01   1.00800           0
      5828 MEMB     45       DPPC     H9Y      HAL2     0.900000E-01   1.00800           0
      5829 MEMB     45       DPPC     C310     CTL2    -0.180000       12.0110           0
      5830 MEMB     45       DPPC     H10X     HAL2     0.900000E-01   1.00800           0
      5831 MEMB     45       DPPC     H10Y     HAL2     0.900000E-01   1.00800           0
      5832 MEMB     45       DPPC     C311     CTL2    -0.180000       12.0110           0
      5833 MEMB     45       DPPC     H11X     HAL2     0.900000E-01   1.00800           0
      5834 MEMB     45       DPPC     H11Y     HAL2     0.900000E-01   1.00800           0
      5835 MEMB     45       DPPC     C312     CTL2    -0.180000       12.0110           0
      5836 MEMB     45       DPPC     H12X     HAL2     0.900000E-01   1.00800           0
      5837 MEMB     45       DPPC     H12Y     HAL2     0.900000E-01   1.00800           0
      5838 MEMB     45       DPPC     C313     CTL2    -0.180000       12.0110           0
      5839 MEMB     45       DPPC     H13X     HAL2     0.900000E-01   1.00800           0
      5840 MEMB     45       DPPC     H13Y     HAL2     0.900000E-01   1.00800           0
      5841 MEMB     45       DPPC     C314     CTL2    -0.180000       12.0110           0
      5842 MEMB     45       DPPC     H14X     HAL2     0.900000E-01   1.00800           0
      5843 MEMB     45       DPPC     H14Y     HAL2     0.900000E-01   1.00800           0
      5844 MEMB     45       DPPC     C315     CTL2    -0.180000       12.0110           0
      5845 MEMB     45       DPPC     H15X     HAL2     0.900000E-01   1.00800           0
      5846 MEMB     45       DPPC     H15Y     HAL2     0.900000E-01   1.00800           0
      5847 MEMB     45       DPPC     C316     CTL3    -0.270000       12.0110           0
      5848 MEMB     45       DPPC     H16X     HAL3     0.900000E-01   1.00800           0
      5849 MEMB     45       DPPC     H16Y     HAL3     0.900000E-01   1.00800           0
      5850 MEMB     45       DPPC     H16Z     HAL3     0.900000E-01   1.00800           0
      5851 MEMB     46       DPPC     N        NTL     -0.600000       14.0070           0
      5852 MEMB     46       DPPC     C13      CTL5    -0.350000       12.0110           0
      5853 MEMB     46       DPPC     H13A     HL       0.250000       1.00800           0
      5854 MEMB     46       DPPC     H13B     HL       0.250000       1.00800           0
      5855 MEMB     46       DPPC     H13C     HL       0.250000       1.00800           0
      5856 MEMB     46       DPPC     C14      CTL5    -0.350000       12.0110           0
      5857 MEMB     46       DPPC     H14A     HL       0.250000       1.00800           0
      5858 MEMB     46       DPPC     H14B     HL       0.250000       1.00800           0
      5859 MEMB     46       DPPC     H14C     HL       0.250000       1.00800           0
      5860 MEMB     46       DPPC     C15      CTL5    -0.350000       12.0110           0
      5861 MEMB     46       DPPC     H15A     HL       0.250000       1.00800           0
      5862 MEMB     46       DPPC     H15B     HL       0.250000       1.00800           0
      5863 MEMB     46       DPPC     H15C     HL       0.250000       1.00800           0
      5864 MEMB     46       DPPC     C12      CTL2    -0.100000       12.0110           0
      5865 MEMB     46       DPPC     H12A     HL       0.250000       1.00800           0
      5866 MEMB     46       DPPC     H12B     HL       0.250000       1.00800           0
      5867 MEMB     46       DPPC     C11      CTL2    -0.800000E-01   12.0110           0
      5868 MEMB     46       DPPC     H11A     HAL2     0.900000E-01   1.00800           0
      5869 MEMB     46       DPPC     H11B     HAL2     0.900000E-01   1.00800           0
      5870 MEMB     46       DPPC     P        PL       1.500000       30.9740           0
      5871 MEMB     46       DPPC     O13      O2L     -0.780000       15.9994           0
      5872 MEMB     46       DPPC     O14      O2L     -0.780000       15.9994           0
      5873 MEMB     46       DPPC     O11      OSLP    -0.570000       15.9994           0
      5874 MEMB     46       DPPC     O12      OSLP    -0.570000       15.9994           0
      5875 MEMB     46       DPPC     C1       CTL2    -0.800000E-01   12.0110           0
      5876 MEMB     46       DPPC     HA       HAL2     0.900000E-01   1.00800           0
      5877 MEMB     46       DPPC     HB       HAL2     0.900000E-01   1.00800           0
      5878 MEMB     46       DPPC     C2       CTL1     0.170000       12.0110           0
      5879 MEMB     46       DPPC     HS       HAL1     0.900000E-01   1.00800           0
      5880 MEMB     46       DPPC     O21      OSL     -0.490000       15.9994           0
      5881 MEMB     46       DPPC     C21      CL       0.900000       12.0110           0
      5882 MEMB     46       DPPC     O22      OBL     -0.630000       15.9994           0
      5883 MEMB     46       DPPC     C22      CTL2    -0.220000       12.0110           0
      5884 MEMB     46       DPPC     H2R      HAL2     0.900000E-01   1.00800           0
      5885 MEMB     46       DPPC     H2S      HAL2     0.900000E-01   1.00800           0
      5886 MEMB     46       DPPC     C3       CTL2     0.800000E-01   12.0110           0
      5887 MEMB     46       DPPC     HX       HAL2     0.900000E-01   1.00800           0
      5888 MEMB     46       DPPC     HY       HAL2     0.900000E-01   1.00800           0
      5889 MEMB     46       DPPC     O31      OSL     -0.490000       15.9994           0
      5890 MEMB     46       DPPC     C31      CL       0.900000       12.0110           0
      5891 MEMB     46       DPPC     O32      OBL     -0.630000       15.9994           0
      5892 MEMB     46       DPPC     C32      CTL2    -0.220000       12.0110           0
      5893 MEMB     46       DPPC     H2X      HAL2     0.900000E-01   1.00800           0
      5894 MEMB     46       DPPC     H2Y      HAL2     0.900000E-01   1.00800           0
      5895 MEMB     46       DPPC     C23      CTL2    -0.180000       12.0110           0
      5896 MEMB     46       DPPC     H3R      HAL2     0.900000E-01   1.00800           0
      5897 MEMB     46       DPPC     H3S      HAL2     0.900000E-01   1.00800           0
      5898 MEMB     46       DPPC     C24      CTL2    -0.180000       12.0110           0
      5899 MEMB     46       DPPC     H4R      HAL2     0.900000E-01   1.00800           0
      5900 MEMB     46       DPPC     H4S      HAL2     0.900000E-01   1.00800           0
      5901 MEMB     46       DPPC     C25      CTL2    -0.180000       12.0110           0
      5902 MEMB     46       DPPC     H5R      HAL2     0.900000E-01   1.00800           0
      5903 MEMB     46       DPPC     H5S      HAL2     0.900000E-01   1.00800           0
      5904 MEMB     46       DPPC     C26      CTL2    -0.180000       12.0110           0
      5905 MEMB     46       DPPC     H6R      HAL2     0.900000E-01   1.00800           0
      5906 MEMB     46       DPPC     H6S      HAL2     0.900000E-01   1.00800           0
      5907 MEMB     46       DPPC     C27      CTL2    -0.180000       12.0110           0
      5908 MEMB     46       DPPC     H7R      HAL2     0.900000E-01   1.00800           0
      5909 MEMB     46       DPPC     H7S      HAL2     0.900000E-01   1.00800           0
      5910 MEMB     46       DPPC     C28      CTL2    -0.180000       12.0110           0
      5911 MEMB     46       DPPC     H8R      HAL2     0.900000E-01   1.00800           0
      5912 MEMB     46       DPPC     H8S      HAL2     0.900000E-01   1.00800           0
      5913 MEMB     46       DPPC     C29      CTL2    -0.180000       12.0110           0
      5914 MEMB     46       DPPC     H9R      HAL2     0.900000E-01   1.00800           0
      5915 MEMB     46       DPPC     H9S      HAL2     0.900000E-01   1.00800           0
      5916 MEMB     46       DPPC     C210     CTL2    -0.180000       12.0110           0
      5917 MEMB     46       DPPC     H10R     HAL2     0.900000E-01   1.00800           0
      5918 MEMB     46       DPPC     H10S     HAL2     0.900000E-01   1.00800           0
      5919 MEMB     46       DPPC     C211     CTL2    -0.180000       12.0110           0
      5920 MEMB     46       DPPC     H11R     HAL2     0.900000E-01   1.00800           0
      5921 MEMB     46       DPPC     H11S     HAL2     0.900000E-01   1.00800           0
      5922 MEMB     46       DPPC     C212     CTL2    -0.180000       12.0110           0
      5923 MEMB     46       DPPC     H12R     HAL2     0.900000E-01   1.00800           0
      5924 MEMB     46       DPPC     H12S     HAL2     0.900000E-01   1.00800           0
      5925 MEMB     46       DPPC     C213     CTL2    -0.180000       12.0110           0
      5926 MEMB     46       DPPC     H13R     HAL2     0.900000E-01   1.00800           0
      5927 MEMB     46       DPPC     H13S     HAL2     0.900000E-01   1.00800           0
      5928 MEMB     46       DPPC     C214     CTL2    -0.180000       12.0110           0
      5929 MEMB     46       DPPC     H14R     HAL2     0.900000E-01   1.00800           0
      5930 MEMB     46       DPPC     H14S     HAL2     0.900000E-01   1.00800           0
      5931 MEMB     46       DPPC     C215     CTL2    -0.180000       12.0110           0
      5932 MEMB     46       DPPC     H15R     HAL2     0.900000E-01   1.00800           0
      5933 MEMB     46       DPPC     H15S     HAL2     0.900000E-01   1.00800           0
      5934 MEMB     46       DPPC     C216     CTL3    -0.270000       12.0110           0
      5935 MEMB     46       DPPC     H16R     HAL3     0.900000E-01   1.00800           0
      5936 MEMB     46       DPPC     H16S     HAL3     0.900000E-01   1.00800           0
      5937 MEMB     46       DPPC     H16T     HAL3     0.900000E-01   1.00800           0
      5938 MEMB     46       DPPC     C33      CTL2    -0.180000       12.0110           0
      5939 MEMB     46       DPPC     H3X      HAL2     0.900000E-01   1.00800           0
      5940 MEMB     46       DPPC     H3Y      HAL2     0.900000E-01   1.00800           0
      5941 MEMB     46       DPPC     C34      CTL2    -0.180000       12.0110           0
      5942 MEMB     46       DPPC     H4X      HAL2     0.900000E-01   1.00800           0
      5943 MEMB     46       DPPC     H4Y      HAL2     0.900000E-01   1.00800           0
      5944 MEMB     46       DPPC     C35      CTL2    -0.180000       12.0110           0
      5945 MEMB     46       DPPC     H5X      HAL2     0.900000E-01   1.00800           0
      5946 MEMB     46       DPPC     H5Y      HAL2     0.900000E-01   1.00800           0
      5947 MEMB     46       DPPC     C36      CTL2    -0.180000       12.0110           0
      5948 MEMB     46       DPPC     H6X      HAL2     0.900000E-01   1.00800           0
      5949 MEMB     46       DPPC     H6Y      HAL2     0.900000E-01   1.00800           0
      5950 MEMB     46       DPPC     C37      CTL2    -0.180000       12.0110           0
      5951 MEMB     46       DPPC     H7X      HAL2     0.900000E-01   1.00800           0
      5952 MEMB     46       DPPC     H7Y      HAL2     0.900000E-01   1.00800           0
      5953 MEMB     46       DPPC     C38      CTL2    -0.180000       12.0110           0
      5954 MEMB     46       DPPC     H8X      HAL2     0.900000E-01   1.00800           0
      5955 MEMB     46       DPPC     H8Y      HAL2     0.900000E-01   1.00800           0
      5956 MEMB     46       DPPC     C39      CTL2    -0.180000       12.0110           0
      5957 MEMB     46       DPPC     H9X      HAL2     0.900000E-01   1.00800           0
      5958 MEMB     46       DPPC     H9Y      HAL2     0.900000E-01   1.00800           0
      5959 MEMB     46       DPPC     C310     CTL2    -0.180000       12.0110           0
      5960 MEMB     46       DPPC     H10X     HAL2     0.900000E-01   1.00800           0
      5961 MEMB     46       DPPC     H10Y     HAL2     0.900000E-01   1.00800           0
      5962 MEMB     46       DPPC     C311     CTL2    -0.180000       12.0110           0
      5963 MEMB     46       DPPC     H11X     HAL2     0.900000E-01   1.00800           0
      5964 MEMB     46       DPPC     H11Y     HAL2     0.900000E-01   1.00800           0
      5965 MEMB     46       DPPC     C312     CTL2    -0.180000       12.0110           0
      5966 MEMB     46       DPPC     H12X     HAL2     0.900000E-01   1.00800           0
      5967 MEMB     46       DPPC     H12Y     HAL2     0.900000E-01   1.00800           0
      5968 MEMB     46       DPPC     C313     CTL2    -0.180000       12.0110           0
      5969 MEMB     46       DPPC     H13X     HAL2     0.900000E-01   1.00800           0
      5970 MEMB     46       DPPC     H13Y     HAL2     0.900000E-01   1.00800           0
      5971 MEMB     46       DPPC     C314     CTL2    -0.180000       12.0110           0
      5972 MEMB     46       DPPC     H14X     HAL2     0.900000E-01   1.00800           0
      5973 MEMB     46       DPPC     H14Y     HAL2     0.900000E-01   1.00800           0
      5974 MEMB     46       DPPC     C315     CTL2    -0.180000       12.0110           0
      5975 MEMB     46       DPPC     H15X     HAL2     0.900000E-01   1.00800           0
      5976 MEMB     46       DPPC     H15Y     HAL2     0.900000E-01   1.00800           0
      5977 MEMB     46       DPPC     C316     CTL3    -0.270000       12.0110           0
      5978 MEMB     46       DPPC     H16X     HAL3     0.900000E-01   1.00800           0
      5979 MEMB     46       DPPC     H16Y     HAL3     0.900000E-01   1.00800           0
      5980 MEMB     46       DPPC     H16Z     HAL3     0.900000E-01   1.00800           0
      5981 MEMB     47       DPPC     N        NTL     -0.600000       14.0070           0
      5982 MEMB     47       DPPC     C13      CTL5    -0.350000       12.0110           0
      5983 MEMB     47       DPPC     H13A     HL       0.250000       1.00800           0
      5984 MEMB     47       DPPC     H13B     HL       0.250000       1.00800           0
      5985 MEMB     47       DPPC     H13C     HL       0.250000       1.00800           0
      5986 MEMB     47       DPPC     C14      CTL5    -0.350000       12.0110           0
      5987 MEMB     47       DPPC     H14A     HL       0.250000       1.00800           0
      5988 MEMB     47       DPPC     H14B     HL       0.250000       1.00800           0
      5989 MEMB     47       DPPC     H14C     HL       0.250000       1.00800           0
      5990 MEMB     47       DPPC     C15      CTL5    -0.350000       12.0110           0
      5991 MEMB     47       DPPC     H15A     HL       0.250000       1.00800           0
      5992 MEMB     47       DPPC     H15B     HL       0.250000       1.00800           0
      5993 MEMB     47       DPPC     H15C     HL       0.250000       1.00800           0
      5994 MEMB     47       DPPC     C12      CTL2    -0.100000       12.0110           0
      5995 MEMB     47       DPPC     H12A     HL       0.250000       1.00800           0
      5996 MEMB     47       DPPC     H12B     HL       0.250000       1.00800           0
      5997 MEMB     47       DPPC     C11      CTL2    -0.800000E-01   12.0110           0
      5998 MEMB     47       DPPC     H11A     HAL2     0.900000E-01   1.00800           0
      5999 MEMB     47       DPPC     H11B     HAL2     0.900000E-01   1.00800           0
      6000 MEMB     47       DPPC     P        PL       1.500000       30.9740           0
      6001 MEMB     47       DPPC     O13      O2L     -0.780000       15.9994           0
      6002 MEMB     47       DPPC     O14      O2L     -0.780000       15.9994           0
      6003 MEMB     47       DPPC     O11      OSLP    -0.570000       15.9994           0
      6004 MEMB     47       DPPC     O12      OSLP    -0.570000       15.9994           0
      6005 MEMB     47       DPPC     C1       CTL2    -0.800000E-01   12.0110           0
      6006 MEMB     47       DPPC     HA       HAL2     0.900000E-01   1.00800           0
      6007 MEMB     47       DPPC     HB       HAL2     0.900000E-01   1.00800           0
      6008 MEMB     47       DPPC     C2       CTL1     0.170000       12.0110           0
      6009 MEMB     47       DPPC     HS       HAL1     0.900000E-01   1.00800           0
      6010 MEMB     47       DPPC     O21      OSL     -0.490000       15.9994           0
      6011 MEMB     47       DPPC     C21      CL       0.900000       12.0110           0
      6012 MEMB     47       DPPC     O22      OBL     -0.630000       15.9994           0
      6013 MEMB     47       DPPC     C22      CTL2    -0.220000       12.0110           0
      6014 MEMB     47       DPPC     H2R      HAL2     0.900000E-01   1.00800           0
      6015 MEMB     47       DPPC     H2S      HAL2     0.900000E-01   1.00800           0
      6016 MEMB     47       DPPC     C3       CTL2     0.800000E-01   12.0110           0
      6017 MEMB     47       DPPC     HX       HAL2     0.900000E-01   1.00800           0
      6018 MEMB     47       DPPC     HY       HAL2     0.900000E-01   1.00800           0
      6019 MEMB     47       DPPC     O31      OSL     -0.490000       15.9994           0
      6020 MEMB     47       DPPC     C31      CL       0.900000       12.0110           0
      6021 MEMB     47       DPPC     O32      OBL     -0.630000       15.9994           0
      6022 MEMB     47       DPPC     C32      CTL2    -0.220000       12.0110           0
      6023 MEMB     47       DPPC     H2X      HAL2     0.900000E-01   1.00800           0
      6024 MEMB     47       DPPC     H2Y      HAL2     0.900000E-01   1.00800           0
      6025 MEMB     47       DPPC     C23      CTL2    -0.180000       12.0110           0
      6026 MEMB     47       DPPC     H3R      HAL2     0.900000E-01   1.00800           0
      6027 MEMB     47       DPPC     H3S      HAL2     0.900000E-01   1.00800           0
      6028 MEMB     47       DPPC     C24      CTL2    -0.180000       12.0110           0
      6029 MEMB     47       DPPC     H4R      HAL2     0.900000E-01   1.00800           0
      6030 MEMB     47       DPPC     H4S      HAL2     0.900000E-01   1.00800           0
      6031 MEMB     47       DPPC     C25      CTL2    -0.180000       12.0110           0
      6032 MEMB     47       DPPC     H5R      HAL2     0.900000E-01   1.00800           0
      6033 MEMB     47       DPPC     H5S      HAL2     0.900000E-01   1.00800           0
      6034 MEMB     47       DPPC     C26      CTL2    -0.180000       12.0110           0
      6035 MEMB     47       DPPC     H6R      HAL2     0.900000E-01   1.00800           0
      6036 MEMB     47       DPPC     H6S      HAL2     0.900000E-01   1.00800           0
      6037 MEMB     47       DPPC     C27      CTL2    -0.180000       12.0110           0
      6038 MEMB     47       DPPC     H7R      HAL2     0.900000E-01   1.00800           0
      6039 MEMB     47       DPPC     H7S      HAL2     0.900000E-01   1.00800           0
      6040 MEMB     47       DPPC     C28      CTL2    -0.180000       12.0110           0
      6041 MEMB     47       DPPC     H8R      HAL2     0.900000E-01   1.00800           0
      6042 MEMB     47       DPPC     H8S      HAL2     0.900000E-01   1.00800           0
      6043 MEMB     47       DPPC     C29      CTL2    -0.180000       12.0110           0
      6044 MEMB     47       DPPC     H9R      HAL2     0.900000E-01   1.00800           0
      6045 MEMB     47       DPPC     H9S      HAL2     0.900000E-01   1.00800           0
      6046 MEMB     47       DPPC     C210     CTL2    -0.180000       12.0110           0
      6047 MEMB     47       DPPC     H10R     HAL2     0.900000E-01   1.00800           0
      6048 MEMB     47       DPPC     H10S     HAL2     0.900000E-01   1.00800           0
      6049 MEMB     47       DPPC     C211     CTL2    -0.180000       12.0110           0
      6050 MEMB     47       DPPC     H11R     HAL2     0.900000E-01   1.00800           0
      6051 MEMB     47       DPPC     H11S     HAL2     0.900000E-01   1.00800           0
      6052 MEMB     47       DPPC     C212     CTL2    -0.180000       12.0110           0
      6053 MEMB     47       DPPC     H12R     HAL2     0.900000E-01   1.00800           0
      6054 MEMB     47       DPPC     H12S     HAL2     0.900000E-01   1.00800           0
      6055 MEMB     47       DPPC     C213     CTL2    -0.180000       12.0110           0
      6056 MEMB     47       DPPC     H13R     HAL2     0.900000E-01   1.00800           0
      6057 MEMB     47       DPPC     H13S     HAL2     0.900000E-01   1.00800           0
      6058 MEMB     47       DPPC     C214     CTL2    -0.180000       12.0110           0
      6059 MEMB     47       DPPC     H14R     HAL2     0.900000E-01   1.00800           0
      6060 MEMB     47       DPPC     H14S     HAL2     0.900000E-01   1.00800           0
      6061 MEMB     47       DPPC     C215     CTL2    -0.180000       12.0110           0
      6062 MEMB     47       DPPC     H15R     HAL2     0.900000E-01   1.00800           0
      6063 MEMB     47       DPPC     H15S     HAL2     0.900000E-01   1.00800           0
      6064 MEMB     47       DPPC     C216     CTL3    -0.270000       12.0110           0
      6065 MEMB     47       DPPC     H16R     HAL3     0.900000E-01   1.00800           0
      6066 MEMB     47       DPPC     H16S     HAL3     0.900000E-01   1.00800           0
      6067 MEMB     47       DPPC     H16T     HAL3     0.900000E-01   1.00800           0
      6068 MEMB     47       DPPC     C33      CTL2    -0.180000       12.0110           0
      6069 MEMB     47       DPPC     H3X      HAL2     0.900000E-01   1.00800           0
      6070 MEMB     47       DPPC     H3Y      HAL2     0.900000E-01   1.00800           0
      6071 MEMB     47       DPPC     C34      CTL2    -0.180000       12.0110           0
      6072 MEMB     47       DPPC     H4X      HAL2     0.900000E-01   1.00800           0
      6073 MEMB     47       DPPC     H4Y      HAL2     0.900000E-01   1.00800           0
      6074 MEMB     47       DPPC     C35      CTL2    -0.180000       12.0110           0
      6075 MEMB     47       DPPC     H5X      HAL2     0.900000E-01   1.00800           0
      6076 MEMB     47       DPPC     H5Y      HAL2     0.900000E-01   1.00800           0
      6077 MEMB     47       DPPC     C36      CTL2    -0.180000       12.0110           0
      6078 MEMB     47       DPPC     H6X      HAL2     0.900000E-01   1.00800           0
      6079 MEMB     47       DPPC     H6Y      HAL2     0.900000E-01   1.00800           0
      6080 MEMB     47       DPPC     C37      CTL2    -0.180000       12.0110           0
      6081 MEMB     47       DPPC     H7X      HAL2     0.900000E-01   1.00800           0
      6082 MEMB     47       DPPC     H7Y      HAL2     0.900000E-01   1.00800           0
      6083 MEMB     47       DPPC     C38      CTL2    -0.180000       12.0110           0
      6084 MEMB     47       DPPC     H8X      HAL2     0.900000E-01   1.00800           0
      6085 MEMB     47       DPPC     H8Y      HAL2     0.900000E-01   1.00800           0
      6086 MEMB     47       DPPC     C39      CTL2    -0.180000       12.0110           0
      6087 MEMB     47       DPPC     H9X      HAL2     0.900000E-01   1.00800           0
      6088 MEMB     47       DPPC     H9Y      HAL2     0.900000E-01   1.00800           0
      6089 MEMB     47       DPPC     C310     CTL2    -0.180000       12.0110           0
      6090 MEMB     47       DPPC     H10X     HAL2     0.900000E-01   1.00800           0
      6091 MEMB     47       DPPC     H10Y     HAL2     0.900000E-01   1.00800           0
      6092 MEMB     47       DPPC     C311     CTL2    -0.180000       12.0110           0
      6093 MEMB     47       DPPC     H11X     HAL2     0.900000E-01   1.00800           0
      6094 MEMB     47       DPPC     H11Y     HAL2     0.900000E-01   1.00800           0
      6095 MEMB     47       DPPC     C312     CTL2    -0.180000       12.0110           0
      6096 MEMB     47       DPPC     H12X     HAL2     0.900000E-01   1.00800           0
      6097 MEMB     47       DPPC     H12Y     HAL2     0.900000E-01   1.00800           0
      6098 MEMB     47       DPPC     C313     CTL2    -0.180000       12.0110           0
      6099 MEMB     47       DPPC     H13X     HAL2     0.900000E-01   1.00800           0
      6100 MEMB     47       DPPC     H13Y     HAL2     0.900000E-01   1.00800           0
      6101 MEMB     47       DPPC     C314     CTL2    -0.180000       12.0110           0
      6102 MEMB     47       DPPC     H14X     HAL2     0.900000E-01   1.00800           0
      6103 MEMB     47       DPPC     H14Y     HAL2     0.900000E-01   1.00800           0
      6104 MEMB     47       DPPC     C315     CTL2    -0.180000       12.0110           0
      6105 MEMB     47       DPPC     H15X     HAL2     0.900000E-01   1.00800           0
      6106 MEMB     47       DPPC     H15Y     HAL2     0.900000E-01   1.00800           0
      6107 MEMB     47       DPPC     C316     CTL3    -0.270000       12.0110           0
      6108 MEMB     47       DPPC     H16X     HAL3     0.900000E-01   1.00800           0
      6109 MEMB     47       DPPC     H16Y     HAL3     0.900000E-01   1.00800           0
      6110 MEMB     47       DPPC     H16Z     HAL3     0.900000E-01   1.00800           0
      6111 MEMB     48       DPPC     N        NTL     -0.600000       14.0070           0
      6112 MEMB     48       DPPC     C13      CTL5    -0.350000       12.0110           0
      6113 MEMB     48       DPPC     H13A     HL       0.250000       1.00800           0
      6114 MEMB     48       DPPC     H13B     HL       0.250000       1.00800           0
      6115 MEMB     48       DPPC     H13C     HL       0.250000       1.00800           0
      6116 MEMB     48       DPPC     C14      CTL5    -0.350000       12.0110           0
      6117 MEMB     48       DPPC     H14A     HL       0.250000       1.00800           0
      6118 MEMB     48       DPPC     H14B     HL       0.250000       1.00800           0
      6119 MEMB     48       DPPC     H14C     HL       0.250000       1.00800           0
      6120 MEMB     48       DPPC     C15      CTL5    -0.350000       12.0110           0
      6121 MEMB     48       DPPC     H15A     HL       0.250000       1.00800           0
      6122 MEMB     48       DPPC     H15B     HL       0.250000       1.00800           0
      6123 MEMB     48       DPPC     H15C     HL       0.250000       1.00800           0
      6124 MEMB     48       DPPC     C12      CTL2    -0.100000       12.0110           0
      6125 MEMB     48       DPPC     H12A     HL       0.250000       1.00800           0
      6126 MEMB     48       DPPC     H12B     HL       0.250000       1.00800           0
      6127 MEMB     48       DPPC     C11      CTL2    -0.800000E-01   12.0110           0
      6128 MEMB     48       DPPC     H11A     HAL2     0.900000E-01   1.00800           0
      6129 MEMB     48       DPPC     H11B     HAL2     0.900000E-01   1.00800           0
      6130 MEMB     48       DPPC     P        PL       1.500000       30.9740           0
      6131 MEMB     48       DPPC     O13      O2L     -0.780000       15.9994           0
      6132 MEMB     48       DPPC     O14      O2L     -0.780000       15.9994           0
      6133 MEMB     48       DPPC     O11      OSLP    -0.570000       15.9994           0
      6134 MEMB     48       DPPC     O12      OSLP    -0.570000       15.9994           0
      6135 MEMB     48       DPPC     C1       CTL2    -0.800000E-01   12.0110           0
      6136 MEMB     48       DPPC     HA       HAL2     0.900000E-01   1.00800           0
      6137 MEMB     48       DPPC     HB       HAL2     0.900000E-01   1.00800           0
      6138 MEMB     48       DPPC     C2       CTL1     0.170000       12.0110           0
      6139 MEMB     48       DPPC     HS       HAL1     0.900000E-01   1.00800           0
      6140 MEMB     48       DPPC     O21      OSL     -0.490000       15.9994           0
      6141 MEMB     48       DPPC     C21      CL       0.900000       12.0110           0
      6142 MEMB     48       DPPC     O22      OBL     -0.630000       15.9994           0
      6143 MEMB     48       DPPC     C22      CTL2    -0.220000       12.0110           0
      6144 MEMB     48       DPPC     H2R      HAL2     0.900000E-01   1.00800           0
      6145 MEMB     48       DPPC     H2S      HAL2     0.900000E-01   1.00800           0
      6146 MEMB     48       DPPC     C3       CTL2     0.800000E-01   12.0110           0
      6147 MEMB     48       DPPC     HX       HAL2     0.900000E-01   1.00800           0
      6148 MEMB     48       DPPC     HY       HAL2     0.900000E-01   1.00800           0
      6149 MEMB     48       DPPC     O31      OSL     -0.490000       15.9994           0
      6150 MEMB     48       DPPC     C31      CL       0.900000       12.0110           0
      6151 MEMB     48       DPPC     O32      OBL     -0.630000       15.9994           0
      6152 MEMB     48       DPPC     C32      CTL2    -0.220000       12.0110           0
      6153 MEMB     48       DPPC     H2X      HAL2     0.900000E-01   1.00800           0
      6154 MEMB     48       DPPC     H2Y      HAL2     0.900000E-01   1.00800           0
      6155 MEMB     48       DPPC     C23      CTL2    -0.180000       12.0110           0
      6156 MEMB     48       DPPC     H3R      HAL2     0.900000E-01   1.00800           0
      6157 MEMB     48       DPPC     H3S      HAL2     0.900000E-01   1.00800           0
      6158 MEMB     48       DPPC     C24      CTL2    -0.180000       12.0110           0
      6159 MEMB     48       DPPC     H4R      HAL2     0.900000E-01   1.00800           0
      6160 MEMB     48       DPPC     H4S      HAL2     0.900000E-01   1.00800           0
      6161 MEMB     48       DPPC     C25      CTL2    -0.180000       12.0110           0
      6162 MEMB     48       DPPC     H5R      HAL2     0.900000E-01   1.00800           0
      6163 MEMB     48       DPPC     H5S      HAL2     0.900000E-01   1.00800           0
      6164 MEMB     48       DPPC     C26      CTL2    -0.180000       12.0110           0
      6165 MEMB     48       DPPC     H6R      HAL2     0.900000E-01   1.00800           0
      6166 MEMB     48       DPPC     H6S      HAL2     0.900000E-01   1.00800           0
      6167 MEMB     48       DPPC     C27      CTL2    -0.180000       12.0110           0
      6168 MEMB     48       DPPC     H7R      HAL2     0.900000E-01   1.00800           0
      6169 MEMB     48       DPPC     H7S      HAL2     0.900000E-01   1.00800           0
      6170 MEMB     48       DPPC     C28      CTL2    -0.180000       12.0110           0
      6171 MEMB     48       DPPC     H8R      HAL2     0.900000E-01   1.00800           0
      6172 MEMB     48       DPPC     H8S      HAL2     0.900000E-01   1.00800           0
      6173 MEMB     48       DPPC     C29      CTL2    -0.180000       12.0110           0
      6174 MEMB     48       DPPC     H9R      HAL2     0.900000E-01   1.00800           0
      6175 MEMB     48       DPPC     H9S      HAL2     0.900000E-01   1.00800           0
      6176 MEMB     48       DPPC     C210     CTL2    -0.180000       12.0110           0
      6177 MEMB     48       DPPC     H10R     HAL2     0.900000E-01   1.00800           0
      6178 MEMB     48       DPPC     H10S     HAL2     0.900000E-01   1.00800           0
      6179 MEMB     48       DPPC     C211     CTL2    -0.180000       12.0110           0
      6180 MEMB     48       DPPC     H11R     HAL2     0.900000E-01   1.00800           0
      6181 MEMB     48       DPPC     H11S     HAL2     0.900000E-01   1.00800           0
      6182 MEMB     48       DPPC     C212     CTL2    -0.180000       12.0110           0
      6183 MEMB     48       DPPC     H12R     HAL2     0.900000E-01   1.00800           0
      6184 MEMB     48       DPPC     H12S     HAL2     0.900000E-01   1.00800           0
      6185 MEMB     48       DPPC     C213     CTL2    -0.180000       12.0110           0
      6186 MEMB     48       DPPC     H13R     HAL2     0.900000E-01   1.00800           0
      6187 MEMB     48       DPPC     H13S     HAL2     0.900000E-01   1.00800           0
      6188 MEMB     48       DPPC     C214     CTL2    -0.180000       12.0110           0
      6189 MEMB     48       DPPC     H14R     HAL2     0.900000E-01   1.00800           0
      6190 MEMB     48       DPPC     H14S     HAL2     0.900000E-01   1.00800           0
      6191 MEMB     48       DPPC     C215     CTL2    -0.180000       12.0110           0
      6192 MEMB     48       DPPC     H15R     HAL2     0.900000E-01   1.00800           0
      6193 MEMB     48       DPPC     H15S     HAL2     0.900000E-01   1.00800           0
      6194 MEMB     48       DPPC     C216     CTL3    -0.270000       12.0110           0
      6195 MEMB     48       DPPC     H16R     HAL3     0.900000E-01   1.00800           0
      6196 MEMB     48       DPPC     H16S     HAL3     0.900000E-01   1.00800           0
      6197 MEMB     48       DPPC     H16T     HAL3     0.900000E-01   1.00800           0
      6198 MEMB     48       DPPC     C33      CTL2    -0.180000       12.0110           0
      6199 MEMB     48       DPPC     H3X      HAL2     0.900000E-01   1.00800           0
      6200 MEMB     48       DPPC     H3Y      HAL2     0.900000E-01   1.00800           0
      6201 MEMB     48       DPPC     C34      CTL2    -0.180000       12.0110           0
      6202 MEMB     48       DPPC     H4X      HAL2     0.900000E-01   1.00800           0
      6203 MEMB     48       DPPC     H4Y      HAL2     0.900000E-01   1.00800           0
      6204 MEMB     48       DPPC     C35      CTL2    -0.180000       12.0110           0
      6205 MEMB     48       DPPC     H5X      HAL2     0.900000E-01   1.00800           0
      6206 MEMB     48       DPPC     H5Y      HAL2     0.900000E-01   1.00800           0
      6207 MEMB     48       DPPC     C36      CTL2    -0.180000       12.0110           0
      6208 MEMB     48       DPPC     H6X      HAL2     0.900000E-01   1.00800           0
      6209 MEMB     48       DPPC     H6Y      HAL2     0.900000E-01   1.00800           0
      6210 MEMB     48       DPPC     C37      CTL2    -0.180000       12.0110           0
      6211 MEMB     48       DPPC     H7X      HAL2     0.900000E-01   1.00800           0
      6212 MEMB     48       DPPC     H7Y      HAL2     0.900000E-01   1.00800           0
      6213 MEMB     48       DPPC     C38      CTL2    -0.180000       12.0110           0
      6214 MEMB     48       DPPC     H8X      HAL2     0.900000E-01   1.00800           0
      6215 MEMB     48       DPPC     H8Y      HAL2     0.900000E-01   1.00800           0
      6216 MEMB     48       DPPC     C39      CTL2    -0.180000       12.0110           0
      6217 MEMB     48       DPPC     H9X      HAL2     0.900000E-01   1.00800           0
      6218 MEMB     48       DPPC     H9Y      HAL2     0.900000E-01   1.00800           0
      6219 MEMB     48       DPPC     C310     CTL2    -0.180000       12.0110           0
      6220 MEMB     48       DPPC     H10X     HAL2     0.900000E-01   1.00800           0
      6221 MEMB     48       DPPC     H10Y     HAL2     0.900000E-01   1.00800           0
      6222 MEMB     48       DPPC     C311     CTL2    -0.180000       12.0110           0
      6223 MEMB     48       DPPC     H11X     HAL2     0.900000E-01   1.00800           0
      6224 MEMB     48       DPPC     H11Y     HAL2     0.900000E-01   1.00800           0
      6225 MEMB     48       DPPC     C312     CTL2    -0.180000       12.0110           0
      6226 MEMB     48       DPPC     H12X     HAL2     0.900000E-01   1.00800           0
      6227 MEMB     48       DPPC     H12Y     HAL2     0.900000E-01   1.00800           0
      6228 MEMB     48       DPPC     C313     CTL2    -0.180000       12.0110           0
      6229 MEMB     48       DPPC     H13X     HAL2     0.900000E-01   1.00800           0
      6230 MEMB     48       DPPC     H13Y     HAL2     0.900000E-01   1.00800           0
      6231 MEMB     48       DPPC     C314     CTL2    -0.180000       12.0110           0
      6232 MEMB     48       DPPC     H14X     HAL2     0.900000E-01   1.00800           0
      6233 MEMB     48       DPPC     H14Y     HAL2     0.900000E-01   1.00800           0
      6234 MEMB     48       DPPC     C315     CTL2    -0.180000       12.0110           0
      6235 MEMB     48       DPPC     H15X     HAL2     0.900000E-01   1.00800           0
      6236 MEMB     48       DPPC     H15Y     HAL2     0.900000E-01   1.00800           0
      6237 MEMB     48       DPPC     C316     CTL3    -0.270000       12.0110           0
      6238 MEMB     48       DPPC     H16X     HAL3     0.900000E-01   1.00800           0
      6239 MEMB     48       DPPC     H16Y     HAL3     0.900000E-01   1.00800           0
      6240 MEMB     48       DPPC     H16Z     HAL3     0.900000E-01   1.00800           0
      6241 MEMB     49       DPPC     N        NTL     -0.600000       14.0070           0
      6242 MEMB     49       DPPC     C13      CTL5    -0.350000       12.0110           0
      6243 MEMB     49       DPPC     H13A     HL       0.250000       1.00800           0
      6244 MEMB     49       DPPC     H13B     HL       0.250000       1.00800           0
      6245 MEMB     49       DPPC     H13C     HL       0.250000       1.00800           0
      6246 MEMB     49       DPPC     C14      CTL5    -0.350000       12.0110           0
      6247 MEMB     49       DPPC     H14A     HL       0.250000       1.00800           0
      6248 MEMB     49       DPPC     H14B     HL       0.250000       1.00800           0
      6249 MEMB     49       DPPC     H14C     HL       0.250000       1.00800           0
      6250 MEMB     49       DPPC     C15      CTL5    -0.350000       12.0110           0
      6251 MEMB     49       DPPC     H15A     HL       0.250000       1.00800           0
      6252 MEMB     49       DPPC     H15B     HL       0.250000       1.00800           0
      6253 MEMB     49       DPPC     H15C     HL       0.250000       1.00800           0
      6254 MEMB     49       DPPC     C12      CTL2    -0.100000       12.0110           0
      6255 MEMB     49       DPPC     H12A     HL       0.250000       1.00800           0
      6256 MEMB     49       DPPC     H12B     HL       0.250000       1.00800           0
      6257 MEMB     49       DPPC     C11      CTL2    -0.800000E-01   12.0110           0
      6258 MEMB     49       DPPC     H11A     HAL2     0.900000E-01   1.00800           0
      6259 MEMB     49       DPPC     H11B     HAL2     0.900000E-01   1.00800           0
      6260 MEMB     49       DPPC     P        PL       1.500000       30.9740           0
      6261 MEMB     49       DPPC     O13      O2L     -0.780000       15.9994           0
      6262 MEMB     49       DPPC     O14      O2L     -0.780000       15.9994           0
      6263 MEMB     49       DPPC     O11      OSLP    -0.570000       15.9994           0
      6264 MEMB     49       DPPC     O12      OSLP    -0.570000       15.9994           0
      6265 MEMB     49       DPPC     C1       CTL2    -0.800000E-01   12.0110           0
      6266 MEMB     49       DPPC     HA       HAL2     0.900000E-01   1.00800           0
      6267 MEMB     49       DPPC     HB       HAL2     0.900000E-01   1.00800           0
      6268 MEMB     49       DPPC     C2       CTL1     0.170000       12.0110           0
      6269 MEMB     49       DPPC     HS       HAL1     0.900000E-01   1.00800           0
      6270 MEMB     49       DPPC     O21      OSL     -0.490000       15.9994           0
      6271 MEMB     49       DPPC     C21      CL       0.900000       12.0110           0
      6272 MEMB     49       DPPC     O22      OBL     -0.630000       15.9994           0
      6273 MEMB     49       DPPC     C22      CTL2    -0.220000       12.0110           0
      6274 MEMB     49       DPPC     H2R      HAL2     0.900000E-01   1.00800           0
      6275 MEMB     49       DPPC     H2S      HAL2     0.900000E-01   1.00800           0
      6276 MEMB     49       DPPC     C3       CTL2     0.800000E-01   12.0110           0
      6277 MEMB     49       DPPC     HX       HAL2     0.900000E-01   1.00800           0
      6278 MEMB     49       DPPC     HY       HAL2     0.900000E-01   1.00800           0
      6279 MEMB     49       DPPC     O31      OSL     -0.490000       15.9994           0
      6280 MEMB     49       DPPC     C31      CL       0.900000       12.0110           0
      6281 MEMB     49       DPPC     O32      OBL     -0.630000       15.9994           0
      6282 MEMB     49       DPPC     C32      CTL2    -0.220000       12.0110           0
      6283 MEMB     49       DPPC     H2X      HAL2     0.900000E-01   1.00800           0
      6284 MEMB     49       DPPC     H2Y      HAL2     0.900000E-01   1.00800           0
      6285 MEMB     49       DPPC     C23      CTL2    -0.180000       12.0110           0
      6286 MEMB     49       DPPC     H3R      HAL2     0.900000E-01   1.00800           0
      6287 MEMB     49       DPPC     H3S      HAL2     0.900000E-01   1.00800           0
      6288 MEMB     49       DPPC     C24      CTL2    -0.180000       12.0110           0
      6289 MEMB     49       DPPC     H4R      HAL2     0.900000E-01   1.00800           0
      6290 MEMB     49       DPPC     H4S      HAL2     0.900000E-01   1.00800           0
      6291 MEMB     49       DPPC     C25      CTL2    -0.180000       12.0110           0
      6292 MEMB     49       DPPC     H5R      HAL2     0.900000E-01   1.00800           0
      6293 MEMB     49       DPPC     H5S      HAL2     0.900000E-01   1.00800           0
      6294 MEMB     49       DPPC     C26      CTL2    -0.180000       12.0110           0
      6295 MEMB     49       DPPC     H6R      HAL2     0.900000E-01   1.00800           0
      6296 MEMB     49       DPPC     H6S      HAL2     0.900000E-01   1.00800           0
      6297 MEMB     49       DPPC     C27      CTL2    -0.180000       12.0110           0
      6298 MEMB     49       DPPC     H7R      HAL2     0.900000E-01   1.00800           0
      6299 MEMB     49       DPPC     H7S      HAL2     0.900000E-01   1.00800           0
      6300 MEMB     49       DPPC     C28      CTL2    -0.180000       12.0110           0
      6301 MEMB     49       DPPC     H8R      HAL2     0.900000E-01   1.00800           0
      6302 MEMB     49       DPPC     H8S      HAL2     0.900000E-01   1.00800           0
      6303 MEMB     49       DPPC     C29      CTL2    -0.180000       12.0110           0
      6304 MEMB     49       DPPC     H9R      HAL2     0.900000E-01   1.00800           0
      6305 MEMB     49       DPPC     H9S      HAL2     0.900000E-01   1.00800           0
      6306 MEMB     49       DPPC     C210     CTL2    -0.180000       12.0110           0
      6307 MEMB     49       DPPC     H10R     HAL2     0.900000E-01   1.00800           0
      6308 MEMB     49       DPPC     H10S     HAL2     0.900000E-01   1.00800           0
      6309 MEMB     49       DPPC     C211     CTL2    -0.180000       12.0110           0
      6310 MEMB     49       DPPC     H11R     HAL2     0.900000E-01   1.00800           0
      6311 MEMB     49       DPPC     H11S     HAL2     0.900000E-01   1.00800           0
      6312 MEMB     49       DPPC     C212     CTL2    -0.180000       12.0110           0
      6313 MEMB     49       DPPC     H12R     HAL2     0.900000E-01   1.00800           0
      6314 MEMB     49       DPPC     H12S     HAL2     0.900000E-01   1.00800           0
      6315 MEMB     49       DPPC     C213     CTL2    -0.180000       12.0110           0
      6316 MEMB     49       DPPC     H13R     HAL2     0.900000E-01   1.00800           0
      6317 MEMB     49       DPPC     H13S     HAL2     0.900000E-01   1.00800           0
      6318 MEMB     49       DPPC     C214     CTL2    -0.180000       12.0110           0
      6319 MEMB     49       DPPC     H14R     HAL2     0.900000E-01   1.00800           0
      6320 MEMB     49       DPPC     H14S     HAL2     0.900000E-01   1.00800           0
      6321 MEMB     49       DPPC     C215     CTL2    -0.180000       12.0110           0
      6322 MEMB     49       DPPC     H15R     HAL2     0.900000E-01   1.00800           0
      6323 MEMB     49       DPPC     H15S     HAL2     0.900000E-01   1.00800           0
      6324 MEMB     49       DPPC     C216     CTL3    -0.270000       12.0110           0
      6325 MEMB     49       DPPC     H16R     HAL3     0.900000E-01   1.00800           0
      6326 MEMB     49       DPPC     H16S     HAL3     0.900000E-01   1.00800           0
      6327 MEMB     49       DPPC     H16T     HAL3     0.900000E-01   1.00800           0
      6328 MEMB     49       DPPC     C33      CTL2    -0.180000       12.0110           0
      6329 MEMB     49       DPPC     H3X      HAL2     0.900000E-01   1.00800           0
      6330 MEMB     49       DPPC     H3Y      HAL2     0.900000E-01   1.00800           0
      6331 MEMB     49       DPPC     C34      CTL2    -0.180000       12.0110           0
      6332 MEMB     49       DPPC     H4X      HAL2     0.900000E-01   1.00800           0
      6333 MEMB     49       DPPC     H4Y      HAL2     0.900000E-01   1.00800           0
      6334 MEMB     49       DPPC     C35      CTL2    -0.180000       12.0110           0
      6335 MEMB     49       DPPC     H5X      HAL2     0.900000E-01   1.00800           0
      6336 MEMB     49       DPPC     H5Y      HAL2     0.900000E-01   1.00800           0
      6337 MEMB     49       DPPC     C36      CTL2    -0.180000       12.0110           0
      6338 MEMB     49       DPPC     H6X      HAL2     0.900000E-01   1.00800           0
      6339 MEMB     49       DPPC     H6Y      HAL2     0.900000E-01   1.00800           0
      6340 MEMB     49       DPPC     C37      CTL2    -0.180000       12.0110           0
      6341 MEMB     49       DPPC     H7X      HAL2     0.900000E-01   1.00800           0
      6342 MEMB     49       DPPC     H7Y      HAL2     0.900000E-01   1.00800           0
      6343 MEMB     49       DPPC     C38      CTL2    -0.180000       12.0110           0
      6344 MEMB     49       DPPC     H8X      HAL2     0.900000E-01   1.00800           0
      6345 MEMB     49       DPPC     H8Y      HAL2     0.900000E-01   1.00800           0
      6346 MEMB     49       DPPC     C39      CTL2    -0.180000       12.0110           0
      6347 MEMB     49       DPPC     H9X      HAL2     0.900000E-01   1.00800           0
      6348 MEMB     49       DPPC     H9Y      HAL2     0.900000E-01   1.00800           0
      6349 MEMB     49       DPPC     C310     CTL2    -0.180000       12.0110           0
      6350 MEMB     49       DPPC     H10X     HAL2     0.900000E-01   1.00800           0
      6351 MEMB     49       DPPC     H10Y     HAL2     0.900000E-01   1.00800           0
      6352 MEMB     49       DPPC     C311     CTL2    -0.180000       12.0110           0
      6353 MEMB     49       DPPC     H11X     HAL2     0.900000E-01   1.00800           0
      6354 MEMB     49       DPPC     H11Y     HAL2     0.900000E-01   1.00800           0
      6355 MEMB     49       DPPC     C312     CTL2    -0.180000       12.0110           0
      6356 MEMB     49       DPPC     H12X     HAL2     0.900000E-01   1.00800           0
      6357 MEMB     49       DPPC     H12Y     HAL2     0.900000E-01   1.00800           0
      6358 MEMB     49       DPPC     C313     CTL2    -0.180000       12.0110           0
      6359 MEMB     49       DPPC     H13X     HAL2     0.900000E-01   1.00800           0
      6360 MEMB     49       DPPC     H13Y     HAL2     0.900000E-01   1.00800           0
      6361 MEMB     49       DPPC     C314     CTL2    -0.180000       12.0110           0
      6362 MEMB     49       DPPC     H14X     HAL2     0.900000E-01   1.00800           0
      6363 MEMB     49       DPPC     H14Y     HAL2     0.900000E-01   1.00800           0
      6364 MEMB     49       DPPC     C315     CTL2    -0.180000       12.0110           0
      6365 MEMB     49       DPPC     H15X     HAL2     0.900000E-01   1.00800           0
      6366 MEMB     49       DPPC     H15Y     HAL2     0.900000E-01   1.00800           0
      6367 MEMB     49       DPPC     C316     CTL3    -0.270000       12.0110           0
      6368 MEMB     49       DPPC     H16X     HAL3     0.900000E-01   1.00800           0
      6369 MEMB     49       DPPC     H16Y     HAL3     0.900000E-01   1.00800           0
      6370 MEMB     49       DPPC     H16Z     HAL3     0.900000E-01   1.00800           0
      6371 MEMB     50       DPPC     N        NTL     -0.600000       14.0070           0
      6372 MEMB     50       DPPC     C13      CTL5    -0.350000       12.0110           0
      6373 MEMB     50       DPPC     H13A     HL       0.250000       1.00800           0
      6374 MEMB     50       DPPC     H13B     HL       0.250000       1.00800           0
      6375 MEMB     50       DPPC     H13C     HL       0.250000       1.00800           0
      6376 MEMB     50       DPPC     C14      CTL5    -0.350000       12.0110           0
      6377 MEMB     50       DPPC     H14A     HL       0.250000       1.00800           0
      6378 MEMB     50       DPPC     H14B     HL       0.250000       1.00800           0
      6379 MEMB     50       DPPC     H14C     HL       0.250000       1.00800           0
      6380 MEMB     50       DPPC     C15      CTL5    -0.350000       12.0110           0
      6381 MEMB     50       DPPC     H15A     HL       0.250000       1.00800           0
      6382 MEMB     50       DPPC     H15B     HL       0.250000       1.00800           0
      6383 MEMB     50       DPPC     H15C     HL       0.250000       1.00800           0
      6384 MEMB     50       DPPC     C12      CTL2    -0.100000       12.0110           0
      6385 MEMB     50       DPPC     H12A     HL       0.250000       1.00800           0
      6386 MEMB     50       DPPC     H12B     HL       0.250000       1.00800           0
      6387 MEMB     50       DPPC     C11      CTL2    -0.800000E-01   12.0110           0
      6388 MEMB     50       DPPC     H11A     HAL2     0.900000E-01   1.00800           0
      6389 MEMB     50       DPPC     H11B     HAL2     0.900000E-01   1.00800           0
      6390 MEMB     50       DPPC     P        PL       1.500000       30.9740           0
      6391 MEMB     50       DPPC     O13      O2L     -0.780000       15.9994           0
      6392 MEMB     50       DPPC     O14      O2L     -0.780000       15.9994           0
      6393 MEMB     50       DPPC     O11      OSLP    -0.570000       15.9994           0
      6394 MEMB     50       DPPC     O12      OSLP    -0.570000       15.9994           0
      6395 MEMB     50       DPPC     C1       CTL2    -0.800000E-01   12.0110           0
      6396 MEMB     50       DPPC     HA       HAL2     0.900000E-01   1.00800           0
      6397 MEMB     50       DPPC     HB       HAL2     0.900000E-01   1.00800           0
      6398 MEMB     50       DPPC     C2       CTL1     0.170000       12.0110           0
      6399 MEMB     50       DPPC     HS       HAL1     0.900000E-01   1.00800           0
      6400 MEMB     50       DPPC     O21      OSL     -0.490000       15.9994           0
      6401 MEMB     50       DPPC     C21      CL       0.900000       12.0110           0
      6402 MEMB     50       DPPC     O22      OBL     -0.630000       15.9994           0
      6403 MEMB     50       DPPC     C22      CTL2    -0.220000       12.0110           0
      6404 MEMB     50       DPPC     H2R      HAL2     0.900000E-01   1.00800           0
      6405 MEMB     50       DPPC     H2S      HAL2     0.900000E-01   1.00800           0
      6406 MEMB     50       DPPC     C3       CTL2     0.800000E-01   12.0110           0
      6407 MEMB     50       DPPC     HX       HAL2     0.900000E-01   1.00800           0
      6408 MEMB     50       DPPC     HY       HAL2     0.900000E-01   1.00800           0
      6409 MEMB     50       DPPC     O31      OSL     -0.490000       15.9994           0
      6410 MEMB     50       DPPC     C31      CL       0.900000       12.0110           0
      6411 MEMB     50       DPPC     O32      OBL     -0.630000       15.9994           0
      6412 MEMB     50       DPPC     C32      CTL2    -0.220000       12.0110           0
      6413 MEMB     50       DPPC     H2X      HAL2     0.900000E-01   1.00800           0
      6414 MEMB     50       DPPC     H2Y      HAL2     0.900000E-01   1.00800           0
      6415 MEMB     50       DPPC     C23      CTL2    -0.180000       12.0110           0
      6416 MEMB     50       DPPC     H3R      HAL2     0.900000E-01   1.00800           0
      6417 MEMB     50       DPPC     H3S      HAL2     0.900000E-01   1.00800           0
      6418 MEMB     50       DPPC     C24      CTL2    -0.180000       12.0110           0
      6419 MEMB     50       DPPC     H4R      HAL2     0.900000E-01   1.00800           0
      6420 MEMB     50       DPPC     H4S      HAL2     0.900000E-01   1.00800           0
      6421 MEMB     50       DPPC     C25      CTL2    -0.180000       12.0110           0
      6422 MEMB     50       DPPC     H5R      HAL2     0.900000E-01   1.00800           0
      6423 MEMB     50       DPPC     H5S      HAL2     0.900000E-01   1.00800           0
      6424 MEMB     50       DPPC     C26      CTL2    -0.180000       12.0110           0
      6425 MEMB     50       DPPC     H6R      HAL2     0.900000E-01   1.00800           0
      6426 MEMB     50       DPPC     H6S      HAL2     0.900000E-01   1.00800           0
      6427 MEMB     50       DPPC     C27      CTL2    -0.180000       12.0110           0
      6428 MEMB     50       DPPC     H7R      HAL2     0.900000E-01   1.00800           0
      6429 MEMB     50       DPPC     H7S      HAL2     0.900000E-01   1.00800           0
      6430 MEMB     50       DPPC     C28      CTL2    -0.180000       12.0110           0
      6431 MEMB     50       DPPC     H8R      HAL2     0.900000E-01   1.00800           0
      6432 MEMB     50       DPPC     H8S      HAL2     0.900000E-01   1.00800           0
      6433 MEMB     50       DPPC     C29      CTL2    -0.180000       12.0110           0
      6434 MEMB     50       DPPC     H9R      HAL2     0.900000E-01   1.00800           0
      6435 MEMB     50       DPPC     H9S      HAL2     0.900000E-01   1.00800           0
      6436 MEMB     50       DPPC     C210     CTL2    -0.180000       12.0110           0
      6437 MEMB     50       DPPC     H10R     HAL2     0.900000E-01   1.00800           0
      6438 MEMB     50       DPPC     H10S     HAL2     0.900000E-01   1.00800           0
      6439 MEMB     50       DPPC     C211     CTL2    -0.180000       12.0110           0
      6440 MEMB     50       DPPC     H11R     HAL2     0.900000E-01   1.00800           0
      6441 MEMB     50       DPPC     H11S     HAL2     0.900000E-01   1.00800           0
      6442 MEMB     50       DPPC     C212     CTL2    -0.180000       12.0110           0
      6443 MEMB     50       DPPC     H12R     HAL2     0.900000E-01   1.00800           0
      6444 MEMB     50       DPPC     H12S     HAL2     0.900000E-01   1.00800           0
      6445 MEMB     50       DPPC     C213     CTL2    -0.180000       12.0110           0
      6446 MEMB     50       DPPC     H13R     HAL2     0.900000E-01   1.00800           0
      6447 MEMB     50       DPPC     H13S     HAL2     0.900000E-01   1.00800           0
      6448 MEMB     50       DPPC     C214     CTL2    -0.180000       12.0110           0
      6449 MEMB     50       DPPC     H14R     HAL2     0.900000E-01   1.00800           0
      6450 MEMB     50       DPPC     H14S     HAL2     0.900000E-01   1.00800           0
      6451 MEMB     50       DPPC     C215     CTL2    -0.180000       12.0110           0
      6452 MEMB     50       DPPC     H15R     HAL2     0.900000E-01   1.00800           0
      6453 MEMB     50       DPPC     H15S     HAL2     0.900000E-01   1.00800           0
      6454 MEMB     50       DPPC     C216     CTL3    -0.270000       12.0110           0
      6455 MEMB     50       DPPC     H16R     HAL3     0.900000E-01   1.00800           0
      6456 MEMB     50       DPPC     H16S     HAL3     0.900000E-01   1.00800           0
      6457 MEMB     50       DPPC     H16T     HAL3     0.900000E-01   1.00800           0
      6458 MEMB     50       DPPC     C33      CTL2    -0.180000       12.0110           0
      6459 MEMB     50       DPPC     H3X      HAL2     0.900000E-01   1.00800           0
      6460 MEMB     50       DPPC     H3Y      HAL2     0.900000E-01   1.00800           0
      6461 MEMB     50       DPPC     C34      CTL2    -0.180000       12.0110           0
      6462 MEMB     50       DPPC     H4X      HAL2     0.900000E-01   1.00800           0
      6463 MEMB     50       DPPC     H4Y      HAL2     0.900000E-01   1.00800           0
      6464 MEMB     50       DPPC     C35      CTL2    -0.180000       12.0110           0
      6465 MEMB     50       DPPC     H5X      HAL2     0.900000E-01   1.00800           0
      6466 MEMB     50       DPPC     H5Y      HAL2     0.900000E-01   1.00800           0
      6467 MEMB     50       DPPC     C36      CTL2    -0.180000       12.0110           0
      6468 MEMB     50       DPPC     H6X      HAL2     0.900000E-01   1.00800           0
      6469 MEMB     50       DPPC     H6Y      HAL2     0.900000E-01   1.00800           0
      6470 MEMB     50       DPPC     C37      CTL2    -0.180000       12.0110           0
      6471 MEMB     50       DPPC     H7X      HAL2     0.900000E-01   1.00800           0
      6472 MEMB     50       DPPC     H7Y      HAL2     0.900000E-01   1.00800           0
      6473 MEMB     50       DPPC     C38      CTL2    -0.180000       12.0110           0
      6474 MEMB     50       DPPC     H8X      HAL2     0.900000E-01   1.00800           0
      6475 MEMB     50       DPPC     H8Y      HAL2     0.900000E-01   1.00800           0
      6476 MEMB     50       DPPC     C39      CTL2    -0.180000       12.0110           0
      6477 MEMB     50       DPPC     H9X      HAL2     0.900000E-01   1.00800           0
      6478 MEMB     50       DPPC     H9Y      HAL2     0.900000E-01   1.00800           0
      6479 MEMB     50       DPPC     C310     CTL2    -0.180000       12.0110           0
      6480 MEMB     50       DPPC     H10X     HAL2     0.900000E-01   1.00800           0
      6481 MEMB     50       DPPC     H10Y     HAL2     0.900000E-01   1.00800           0
      6482 MEMB     50       DPPC     C311     CTL2    -0.180000       12.0110           0
      6483 MEMB     50       DPPC     H11X     HAL2     0.900000E-01   1.00800           0
      6484 MEMB     50       DPPC     H11Y     HAL2     0.900000E-01   1.00800           0
      6485 MEMB     50       DPPC     C312     CTL2    -0.180000       12.0110           0
      6486 MEMB     50       DPPC     H12X     HAL2     0.900000E-01   1.00800           0
      6487 MEMB     50       DPPC     H12Y     HAL2     0.900000E-01   1.00800           0
      6488 MEMB     50       DPPC     C313     CTL2    -0.180000       12.0110           0
      6489 MEMB     50       DPPC     H13X     HAL2     0.900000E-01   1.00800           0
      6490 MEMB     50       DPPC     H13Y     HAL2     0.900000E-01   1.00800           0
      6491 MEMB     50       DPPC     C314     CTL2    -0.180000       12.0110           0
      6492 MEMB     50       DPPC     H14X     HAL2     0.900000E-01   1.00800           0
      6493 MEMB     50       DPPC     H14Y     HAL2     0.900000E-01   1.00800           0
      6494 MEMB     50       DPPC     C315     CTL2    -0.180000       12.0110           0
      6495 MEMB     50       DPPC     H15X     HAL2     0.900000E-01   1.00800           0
      6496 MEMB     50       DPPC     H15Y     HAL2     0.900000E-01   1.00800           0
      6497 MEMB     50       DPPC     C316     CTL3    -0.270000       12.0110           0
      6498 MEMB     50       DPPC     H16X     HAL3     0.900000E-01   1.00800           0
      6499 MEMB     50       DPPC     H16Y     HAL3     0.900000E-01   1.00800           0
      6500 MEMB     50       DPPC     H16Z     HAL3     0.900000E-01   1.00800           0
      6501 MEMB     51       DPPC     N        NTL     -0.600000       14.0070           0
      6502 MEMB     51       DPPC     C13      CTL5    -0.350000       12.0110           0
      6503 MEMB     51       DPPC     H13A     HL       0.250000       1.00800           0
      6504 MEMB     51       DPPC     H13B     HL       0.250000       1.00800           0
      6505 MEMB     51       DPPC     H13C     HL       0.250000       1.00800           0
      6506 MEMB     51       DPPC     C14      CTL5    -0.350000       12.0110           0
      6507 MEMB     51       DPPC     H14A     HL       0.250000       1.00800           0
      6508 MEMB     51       DPPC     H14B     HL       0.250000       1.00800           0
      6509 MEMB     51       DPPC     H14C     HL       0.250000       1.00800           0
      6510 MEMB     51       DPPC     C15      CTL5    -0.350000       12.0110           0
      6511 MEMB     51       DPPC     H15A     HL       0.250000       1.00800           0
      6512 MEMB     51       DPPC     H15B     HL       0.250000       1.00800           0
      6513 MEMB     51       DPPC     H15C     HL       0.250000       1.00800           0
      6514 MEMB     51       DPPC     C12      CTL2    -0.100000       12.0110           0
      6515 MEMB     51       DPPC     H12A     HL       0.250000       1.00800           0
      6516 MEMB     51       DPPC     H12B     HL       0.250000       1.00800           0
      6517 MEMB     51       DPPC     C11      CTL2    -0.800000E-01   12.0110           0
      6518 MEMB     51       DPPC     H11A     HAL2     0.900000E-01   1.00800           0
      6519 MEMB     51       DPPC     H11B     HAL2     0.900000E-01   1.00800           0
      6520 MEMB     51       DPPC     P        PL       1.500000       30.9740           0
      6521 MEMB     51       DPPC     O13      O2L     -0.780000       15.9994           0
      6522 MEMB     51       DPPC     O14      O2L     -0.780000       15.9994           0
      6523 MEMB     51       DPPC     O11      OSLP    -0.570000       15.9994           0
      6524 MEMB     51       DPPC     O12      OSLP    -0.570000       15.9994           0
      6525 MEMB     51       DPPC     C1       CTL2    -0.800000E-01   12.0110           0
      6526 MEMB     51       DPPC     HA       HAL2     0.900000E-01   1.00800           0
      6527 MEMB     51       DPPC     HB       HAL2     0.900000E-01   1.00800           0
      6528 MEMB     51       DPPC     C2       CTL1     0.170000       12.0110           0
      6529 MEMB     51       DPPC     HS       HAL1     0.900000E-01   1.00800           0
      6530 MEMB     51       DPPC     O21      OSL     -0.490000       15.9994           0
      6531 MEMB     51       DPPC     C21      CL       0.900000       12.0110           0
      6532 MEMB     51       DPPC     O22      OBL     -0.630000       15.9994           0
      6533 MEMB     51       DPPC     C22      CTL2    -0.220000       12.0110           0
      6534 MEMB     51       DPPC     H2R      HAL2     0.900000E-01   1.00800           0
      6535 MEMB     51       DPPC     H2S      HAL2     0.900000E-01   1.00800           0
      6536 MEMB     51       DPPC     C3       CTL2     0.800000E-01   12.0110           0
      6537 MEMB     51       DPPC     HX       HAL2     0.900000E-01   1.00800           0
      6538 MEMB     51       DPPC     HY       HAL2     0.900000E-01   1.00800           0
      6539 MEMB     51       DPPC     O31      OSL     -0.490000       15.9994           0
      6540 MEMB     51       DPPC     C31      CL       0.900000       12.0110           0
      6541 MEMB     51       DPPC     O32      OBL     -0.630000       15.9994           0
      6542 MEMB     51       DPPC     C32      CTL2    -0.220000       12.0110           0
      6543 MEMB     51       DPPC     H2X      HAL2     0.900000E-01   1.00800           0
      6544 MEMB     51       DPPC     H2Y      HAL2     0.900000E-01   1.00800           0
      6545 MEMB     51       DPPC     C23      CTL2    -0.180000       12.0110           0
      6546 MEMB     51       DPPC     H3R      HAL2     0.900000E-01   1.00800           0
      6547 MEMB     51       DPPC     H3S      HAL2     0.900000E-01   1.00800           0
      6548 MEMB     51       DPPC     C24      CTL2    -0.180000       12.0110           0
      6549 MEMB     51       DPPC     H4R      HAL2     0.900000E-01   1.00800           0
      6550 MEMB     51       DPPC     H4S      HAL2     0.900000E-01   1.00800           0
      6551 MEMB     51       DPPC     C25      CTL2    -0.180000       12.0110           0
      6552 MEMB     51       DPPC     H5R      HAL2     0.900000E-01   1.00800           0
      6553 MEMB     51       DPPC     H5S      HAL2     0.900000E-01   1.00800           0
      6554 MEMB     51       DPPC     C26      CTL2    -0.180000       12.0110           0
      6555 MEMB     51       DPPC     H6R      HAL2     0.900000E-01   1.00800           0
      6556 MEMB     51       DPPC     H6S      HAL2     0.900000E-01   1.00800           0
      6557 MEMB     51       DPPC     C27      CTL2    -0.180000       12.0110           0
      6558 MEMB     51       DPPC     H7R      HAL2     0.900000E-01   1.00800           0
      6559 MEMB     51       DPPC     H7S      HAL2     0.900000E-01   1.00800           0
      6560 MEMB     51       DPPC     C28      CTL2    -0.180000       12.0110           0
      6561 MEMB     51       DPPC     H8R      HAL2     0.900000E-01   1.00800           0
      6562 MEMB     51       DPPC     H8S      HAL2     0.900000E-01   1.00800           0
      6563 MEMB     51       DPPC     C29      CTL2    -0.180000       12.0110           0
      6564 MEMB     51       DPPC     H9R      HAL2     0.900000E-01   1.00800           0
      6565 MEMB     51       DPPC     H9S      HAL2     0.900000E-01   1.00800           0
      6566 MEMB     51       DPPC     C210     CTL2    -0.180000       12.0110           0
      6567 MEMB     51       DPPC     H10R     HAL2     0.900000E-01   1.00800           0
      6568 MEMB     51       DPPC     H10S     HAL2     0.900000E-01   1.00800           0
      6569 MEMB     51       DPPC     C211     CTL2    -0.180000       12.0110           0
      6570 MEMB     51       DPPC     H11R     HAL2     0.900000E-01   1.00800           0
      6571 MEMB     51       DPPC     H11S     HAL2     0.900000E-01   1.00800           0
      6572 MEMB     51       DPPC     C212     CTL2    -0.180000       12.0110           0
      6573 MEMB     51       DPPC     H12R     HAL2     0.900000E-01   1.00800           0
      6574 MEMB     51       DPPC     H12S     HAL2     0.900000E-01   1.00800           0
      6575 MEMB     51       DPPC     C213     CTL2    -0.180000       12.0110           0
      6576 MEMB     51       DPPC     H13R     HAL2     0.900000E-01   1.00800           0
      6577 MEMB     51       DPPC     H13S     HAL2     0.900000E-01   1.00800           0
      6578 MEMB     51       DPPC     C214     CTL2    -0.180000       12.0110           0
      6579 MEMB     51       DPPC     H14R     HAL2     0.900000E-01   1.00800           0
      6580 MEMB     51       DPPC     H14S     HAL2     0.900000E-01   1.00800           0
      6581 MEMB     51       DPPC     C215     CTL2    -0.180000       12.0110           0
      6582 MEMB     51       DPPC     H15R     HAL2     0.900000E-01   1.00800           0
      6583 MEMB     51       DPPC     H15S     HAL2     0.900000E-01   1.00800           0
      6584 MEMB     51       DPPC     C216     CTL3    -0.270000       12.0110           0
      6585 MEMB     51       DPPC     H16R     HAL3     0.900000E-01   1.00800           0
      6586 MEMB     51       DPPC     H16S     HAL3     0.900000E-01   1.00800           0
      6587 MEMB     51       DPPC     H16T     HAL3     0.900000E-01   1.00800           0
      6588 MEMB     51       DPPC     C33      CTL2    -0.180000       12.0110           0
      6589 MEMB     51       DPPC     H3X      HAL2     0.900000E-01   1.00800           0
      6590 MEMB     51       DPPC     H3Y      HAL2     0.900000E-01   1.00800           0
      6591 MEMB     51       DPPC     C34      CTL2    -0.180000       12.0110           0
      6592 MEMB     51       DPPC     H4X      HAL2     0.900000E-01   1.00800           0
      6593 MEMB     51       DPPC     H4Y      HAL2     0.900000E-01   1.00800           0
      6594 MEMB     51       DPPC     C35      CTL2    -0.180000       12.0110           0
      6595 MEMB     51       DPPC     H5X      HAL2     0.900000E-01   1.00800           0
      6596 MEMB     51       DPPC     H5Y      HAL2     0.900000E-01   1.00800           0
      6597 MEMB     51       DPPC     C36      CTL2    -0.180000       12.0110           0
      6598 MEMB     51       DPPC     H6X      HAL2     0.900000E-01   1.00800           0
      6599 MEMB     51       DPPC     H6Y      HAL2     0.900000E-01   1.00800           0
      6600 MEMB     51       DPPC     C37      CTL2    -0.180000       12.0110           0
      6601 MEMB     51       DPPC     H7X      HAL2     0.900000E-01   1.00800           0
      6602 MEMB     51       DPPC     H7Y      HAL2     0.900000E-01   1.00800           0
      6603 MEMB     51       DPPC     C38      CTL2    -0.180000       12.0110           0
      6604 MEMB     51       DPPC     H8X      HAL2     0.900000E-01   1.00800           0
      6605 MEMB     51       DPPC     H8Y      HAL2     0.900000E-01   1.00800           0
      6606 MEMB     51       DPPC     C39      CTL2    -0.180000       12.0110           0
      6607 MEMB     51       DPPC     H9X      HAL2     0.900000E-01   1.00800           0
      6608 MEMB     51       DPPC     H9Y      HAL2     0.900000E-01   1.00800           0
      6609 MEMB     51       DPPC     C310     CTL2    -0.180000       12.0110           0
      6610 MEMB     51       DPPC     H10X     HAL2     0.900000E-01   1.00800           0
      6611 MEMB     51       DPPC     H10Y     HAL2     0.900000E-01   1.00800           0
      6612 MEMB     51       DPPC     C311     CTL2    -0.180000       12.0110           0
      6613 MEMB     51       DPPC     H11X     HAL2     0.900000E-01   1.00800           0
      6614 MEMB     51       DPPC     H11Y     HAL2     0.900000E-01   1.00800           0
      6615 MEMB     51       DPPC     C312     CTL2    -0.180000       12.0110           0
      6616 MEMB     51       DPPC     H12X     HAL2     0.900000E-01   1.00800           0
      6617 MEMB     51       DPPC     H12Y     HAL2     0.900000E-01   1.00800           0
      6618 MEMB     51       DPPC     C313     CTL2    -0.180000       12.0110           0
      6619 MEMB     51       DPPC     H13X     HAL2     0.900000E-01   1.00800           0
      6620 MEMB     51       DPPC     H13Y     HAL2     0.900000E-01   1.00800           0
      6621 MEMB     51       DPPC     C314     CTL2    -0.180000       12.0110           0
      6622 MEMB     51       DPPC     H14X     HAL2     0.900000E-01   1.00800           0
      6623 MEMB     51       DPPC     H14Y     HAL2     0.900000E-01   1.00800           0
      6624 MEMB     51       DPPC     C315     CTL2    -0.180000       12.0110           0
      6625 MEMB     51       DPPC     H15X     HAL2     0.900000E-01   1.00800           0
      6626 MEMB     51       DPPC     H15Y     HAL2     0.900000E-01   1.00800           0
      6627 MEMB     51       DPPC     C316     CTL3    -0.270000       12.0110           0
      6628 MEMB     51       DPPC     H16X     HAL3     0.900000E-01   1.00800           0
      6629 MEMB     51       DPPC     H16Y     HAL3     0.900000E-01   1.00800           0
      6630 MEMB     51       DPPC     H16Z     HAL3     0.900000E-01   1.00800           0
      6631 MEMB     52       DPPC     N        NTL     -0.600000       14.0070           0
      6632 MEMB     52       DPPC     C13      CTL5    -0.350000       12.0110           0
      6633 MEMB     52       DPPC     H13A     HL       0.250000       1.00800           0
      6634 MEMB     52       DPPC     H13B     HL       0.250000       1.00800           0
      6635 MEMB     52       DPPC     H13C     HL       0.250000       1.00800           0
      6636 MEMB     52       DPPC     C14      CTL5    -0.350000       12.0110           0
      6637 MEMB     52       DPPC     H14A     HL       0.250000       1.00800           0
      6638 MEMB     52       DPPC     H14B     HL       0.250000       1.00800           0
      6639 MEMB     52       DPPC     H14C     HL       0.250000       1.00800           0
      6640 MEMB     52       DPPC     C15      CTL5    -0.350000       12.0110           0
      6641 MEMB     52       DPPC     H15A     HL       0.250000       1.00800           0
      6642 MEMB     52       DPPC     H15B     HL       0.250000       1.00800           0
      6643 MEMB     52       DPPC     H15C     HL       0.250000       1.00800           0
      6644 MEMB     52       DPPC     C12      CTL2    -0.100000       12.0110           0
      6645 MEMB     52       DPPC     H12A     HL       0.250000       1.00800           0
      6646 MEMB     52       DPPC     H12B     HL       0.250000       1.00800           0
      6647 MEMB     52       DPPC     C11      CTL2    -0.800000E-01   12.0110           0
      6648 MEMB     52       DPPC     H11A     HAL2     0.900000E-01   1.00800           0
      6649 MEMB     52       DPPC     H11B     HAL2     0.900000E-01   1.00800           0
      6650 MEMB     52       DPPC     P        PL       1.500000       30.9740           0
      6651 MEMB     52       DPPC     O13      O2L     -0.780000       15.9994           0
      6652 MEMB     52       DPPC     O14      O2L     -0.780000       15.9994           0
      6653 MEMB     52       DPPC     O11      OSLP    -0.570000       15.9994           0
      6654 MEMB     52       DPPC     O12      OSLP    -0.570000       15.9994           0
      6655 MEMB     52       DPPC     C1       CTL2    -0.800000E-01   12.0110           0
      6656 MEMB     52       DPPC     HA       HAL2     0.900000E-01   1.00800           0
      6657 MEMB     52       DPPC     HB       HAL2     0.900000E-01   1.00800           0
      6658 MEMB     52       DPPC     C2       CTL1     0.170000       12.0110           0
      6659 MEMB     52       DPPC     HS       HAL1     0.900000E-01   1.00800           0
      6660 MEMB     52       DPPC     O21      OSL     -0.490000       15.9994           0
      6661 MEMB     52       DPPC     C21      CL       0.900000       12.0110           0
      6662 MEMB     52       DPPC     O22      OBL     -0.630000       15.9994           0
      6663 MEMB     52       DPPC     C22      CTL2    -0.220000       12.0110           0
      6664 MEMB     52       DPPC     H2R      HAL2     0.900000E-01   1.00800           0
      6665 MEMB     52       DPPC     H2S      HAL2     0.900000E-01   1.00800           0
      6666 MEMB     52       DPPC     C3       CTL2     0.800000E-01   12.0110           0
      6667 MEMB     52       DPPC     HX       HAL2     0.900000E-01   1.00800           0
      6668 MEMB     52       DPPC     HY       HAL2     0.900000E-01   1.00800           0
      6669 MEMB     52       DPPC     O31      OSL     -0.490000       15.9994           0
      6670 MEMB     52       DPPC     C31      CL       0.900000       12.0110           0
      6671 MEMB     52       DPPC     O32      OBL     -0.630000       15.9994           0
      6672 MEMB     52       DPPC     C32      CTL2    -0.220000       12.0110           0
      6673 MEMB     52       DPPC     H2X      HAL2     0.900000E-01   1.00800           0
      6674 MEMB     52       DPPC     H2Y      HAL2     0.900000E-01   1.00800           0
      6675 MEMB     52       DPPC     C23      CTL2    -0.180000       12.0110           0
      6676 MEMB     52       DPPC     H3R      HAL2     0.900000E-01   1.00800           0
      6677 MEMB     52       DPPC     H3S      HAL2     0.900000E-01   1.00800           0
      6678 MEMB     52       DPPC     C24      CTL2    -0.180000       12.0110           0
      6679 MEMB     52       DPPC     H4R      HAL2     0.900000E-01   1.00800           0
      6680 MEMB     52       DPPC     H4S      HAL2     0.900000E-01   1.00800           0
      6681 MEMB     52       DPPC     C25      CTL2    -0.180000       12.0110           0
      6682 MEMB     52       DPPC     H5R      HAL2     0.900000E-01   1.00800           0
      6683 MEMB     52       DPPC     H5S      HAL2     0.900000E-01   1.00800           0
      6684 MEMB     52       DPPC     C26      CTL2    -0.180000       12.0110           0
      6685 MEMB     52       DPPC     H6R      HAL2     0.900000E-01   1.00800           0
      6686 MEMB     52       DPPC     H6S      HAL2     0.900000E-01   1.00800           0
      6687 MEMB     52       DPPC     C27      CTL2    -0.180000       12.0110           0
      6688 MEMB     52       DPPC     H7R      HAL2     0.900000E-01   1.00800           0
      6689 MEMB     52       DPPC     H7S      HAL2     0.900000E-01   1.00800           0
      6690 MEMB     52       DPPC     C28      CTL2    -0.180000       12.0110           0
      6691 MEMB     52       DPPC     H8R      HAL2     0.900000E-01   1.00800           0
      6692 MEMB     52       DPPC     H8S      HAL2     0.900000E-01   1.00800           0
      6693 MEMB     52       DPPC     C29      CTL2    -0.180000       12.0110           0
      6694 MEMB     52       DPPC     H9R      HAL2     0.900000E-01   1.00800           0
      6695 MEMB     52       DPPC     H9S      HAL2     0.900000E-01   1.00800           0
      6696 MEMB     52       DPPC     C210     CTL2    -0.180000       12.0110           0
      6697 MEMB     52       DPPC     H10R     HAL2     0.900000E-01   1.00800           0
      6698 MEMB     52       DPPC     H10S     HAL2     0.900000E-01   1.00800           0
      6699 MEMB     52       DPPC     C211     CTL2    -0.180000       12.0110           0
      6700 MEMB     52       DPPC     H11R     HAL2     0.900000E-01   1.00800           0
      6701 MEMB     52       DPPC     H11S     HAL2     0.900000E-01   1.00800           0
      6702 MEMB     52       DPPC     C212     CTL2    -0.180000       12.0110           0
      6703 MEMB     52       DPPC     H12R     HAL2     0.900000E-01   1.00800           0
      6704 MEMB     52       DPPC     H12S     HAL2     0.900000E-01   1.00800           0
      6705 MEMB     52       DPPC     C213     CTL2    -0.180000       12.0110           0
      6706 MEMB     52       DPPC     H13R     HAL2     0.900000E-01   1.00800           0
      6707 MEMB     52       DPPC     H13S     HAL2     0.900000E-01   1.00800           0
      6708 MEMB     52       DPPC     C214     CTL2    -0.180000       12.0110           0
      6709 MEMB     52       DPPC     H14R     HAL2     0.900000E-01   1.00800           0
      6710 MEMB     52       DPPC     H14S     HAL2     0.900000E-01   1.00800           0
      6711 MEMB     52       DPPC     C215     CTL2    -0.180000       12.0110           0
      6712 MEMB     52       DPPC     H15R     HAL2     0.900000E-01   1.00800           0
      6713 MEMB     52       DPPC     H15S     HAL2     0.900000E-01   1.00800           0
      6714 MEMB     52       DPPC     C216     CTL3    -0.270000       12.0110           0
      6715 MEMB     52       DPPC     H16R     HAL3     0.900000E-01   1.00800           0
      6716 MEMB     52       DPPC     H16S     HAL3     0.900000E-01   1.00800           0
      6717 MEMB     52       DPPC     H16T     HAL3     0.900000E-01   1.00800           0
      6718 MEMB     52       DPPC     C33      CTL2    -0.180000       12.0110           0
      6719 MEMB     52       DPPC     H3X      HAL2     0.900000E-01   1.00800           0
      6720 MEMB     52       DPPC     H3Y      HAL2     0.900000E-01   1.00800           0
      6721 MEMB     52       DPPC     C34      CTL2    -0.180000       12.0110           0
      6722 MEMB     52       DPPC     H4X      HAL2     0.900000E-01   1.00800           0
      6723 MEMB     52       DPPC     H4Y      HAL2     0.900000E-01   1.00800           0
      6724 MEMB     52       DPPC     C35      CTL2    -0.180000       12.0110           0
      6725 MEMB     52       DPPC     H5X      HAL2     0.900000E-01   1.00800           0
      6726 MEMB     52       DPPC     H5Y      HAL2     0.900000E-01   1.00800           0
      6727 MEMB     52       DPPC     C36      CTL2    -0.180000       12.0110           0
      6728 MEMB     52       DPPC     H6X      HAL2     0.900000E-01   1.00800           0
      6729 MEMB     52       DPPC     H6Y      HAL2     0.900000E-01   1.00800           0
      6730 MEMB     52       DPPC     C37      CTL2    -0.180000       12.0110           0
      6731 MEMB     52       DPPC     H7X      HAL2     0.900000E-01   1.00800           0
      6732 MEMB     52       DPPC     H7Y      HAL2     0.900000E-01   1.00800           0
      6733 MEMB     52       DPPC     C38      CTL2    -0.180000       12.0110           0
      6734 MEMB     52       DPPC     H8X      HAL2     0.900000E-01   1.00800           0
      6735 MEMB     52       DPPC     H8Y      HAL2     0.900000E-01   1.00800           0
      6736 MEMB     52       DPPC     C39      CTL2    -0.180000       12.0110           0
      6737 MEMB     52       DPPC     H9X      HAL2     0.900000E-01   1.00800           0
      6738 MEMB     52       DPPC     H9Y      HAL2     0.900000E-01   1.00800           0
      6739 MEMB     52       DPPC     C310     CTL2    -0.180000       12.0110           0
      6740 MEMB     52       DPPC     H10X     HAL2     0.900000E-01   1.00800           0
      6741 MEMB     52       DPPC     H10Y     HAL2     0.900000E-01   1.00800           0
      6742 MEMB     52       DPPC     C311     CTL2    -0.180000       12.0110           0
      6743 MEMB     52       DPPC     H11X     HAL2     0.900000E-01   1.00800           0
      6744 MEMB     52       DPPC     H11Y     HAL2     0.900000E-01   1.00800           0
      6745 MEMB     52       DPPC     C312     CTL2    -0.180000       12.0110           0
      6746 MEMB     52       DPPC     H12X     HAL2     0.900000E-01   1.00800           0
      6747 MEMB     52       DPPC     H12Y     HAL2     0.900000E-01   1.00800           0
      6748 MEMB     52       DPPC     C313     CTL2    -0.180000       12.0110           0
      6749 MEMB     52       DPPC     H13X     HAL2     0.900000E-01   1.00800           0
      6750 MEMB     52       DPPC     H13Y     HAL2     0.900000E-01   1.00800           0
      6751 MEMB     52       DPPC     C314     CTL2    -0.180000       12.0110           0
      6752 MEMB     52       DPPC     H14X     HAL2     0.900000E-01   1.00800           0
      6753 MEMB     52       DPPC     H14Y     HAL2     0.900000E-01   1.00800           0
      6754 MEMB     52       DPPC     C315     CTL2    -0.180000       12.0110           0
      6755 MEMB     52       DPPC     H15X     HAL2     0.900000E-01   1.00800           0
      6756 MEMB     52       DPPC     H15Y     HAL2     0.900000E-01   1.00800           0
      6757 MEMB     52       DPPC     C316     CTL3    -0.270000       12.0110           0
      6758 MEMB     52       DPPC     H16X     HAL3     0.900000E-01   1.00800           0
      6759 MEMB     52       DPPC     H16Y     HAL3     0.900000E-01   1.00800           0
      6760 MEMB     52       DPPC     H16Z     HAL3     0.900000E-01   1.00800           0
      6761 MEMB     53       DPPC     N        NTL     -0.600000       14.0070           0
      6762 MEMB     53       DPPC     C13      CTL5    -0.350000       12.0110           0
      6763 MEMB     53       DPPC     H13A     HL       0.250000       1.00800           0
      6764 MEMB     53       DPPC     H13B     HL       0.250000       1.00800           0
      6765 MEMB     53       DPPC     H13C     HL       0.250000       1.00800           0
      6766 MEMB     53       DPPC     C14      CTL5    -0.350000       12.0110           0
      6767 MEMB     53       DPPC     H14A     HL       0.250000       1.00800           0
      6768 MEMB     53       DPPC     H14B     HL       0.250000       1.00800           0
      6769 MEMB     53       DPPC     H14C     HL       0.250000       1.00800           0
      6770 MEMB     53       DPPC     C15      CTL5    -0.350000       12.0110           0
      6771 MEMB     53       DPPC     H15A     HL       0.250000       1.00800           0
      6772 MEMB     53       DPPC     H15B     HL       0.250000       1.00800           0
      6773 MEMB     53       DPPC     H15C     HL       0.250000       1.00800           0
      6774 MEMB     53       DPPC     C12      CTL2    -0.100000       12.0110           0
      6775 MEMB     53       DPPC     H12A     HL       0.250000       1.00800           0
      6776 MEMB     53       DPPC     H12B     HL       0.250000       1.00800           0
      6777 MEMB     53       DPPC     C11      CTL2    -0.800000E-01   12.0110           0
      6778 MEMB     53       DPPC     H11A     HAL2     0.900000E-01   1.00800           0
      6779 MEMB     53       DPPC     H11B     HAL2     0.900000E-01   1.00800           0
      6780 MEMB     53       DPPC     P        PL       1.500000       30.9740           0
      6781 MEMB     53       DPPC     O13      O2L     -0.780000       15.9994           0
      6782 MEMB     53       DPPC     O14      O2L     -0.780000       15.9994           0
      6783 MEMB     53       DPPC     O11      OSLP    -0.570000       15.9994           0
      6784 MEMB     53       DPPC     O12      OSLP    -0.570000       15.9994           0
      6785 MEMB     53       DPPC     C1       CTL2    -0.800000E-01   12.0110           0
      6786 MEMB     53       DPPC     HA       HAL2     0.900000E-01   1.00800           0
      6787 MEMB     53       DPPC     HB       HAL2     0.900000E-01   1.00800           0
      6788 MEMB     53       DPPC     C2       CTL1     0.170000       12.0110           0
      6789 MEMB     53       DPPC     HS       HAL1     0.900000E-01   1.00800           0
      6790 MEMB     53       DPPC     O21      OSL     -0.490000       15.9994           0
      6791 MEMB     53       DPPC     C21      CL       0.900000       12.0110           0
      6792 MEMB     53       DPPC     O22      OBL     -0.630000       15.9994           0
      6793 MEMB     53       DPPC     C22      CTL2    -0.220000       12.0110           0
      6794 MEMB     53       DPPC     H2R      HAL2     0.900000E-01   1.00800           0
      6795 MEMB     53       DPPC     H2S      HAL2     0.900000E-01   1.00800           0
      6796 MEMB     53       DPPC     C3       CTL2     0.800000E-01   12.0110           0
      6797 MEMB     53       DPPC     HX       HAL2     0.900000E-01   1.00800           0
      6798 MEMB     53       DPPC     HY       HAL2     0.900000E-01   1.00800           0
      6799 MEMB     53       DPPC     O31      OSL     -0.490000       15.9994           0
      6800 MEMB     53       DPPC     C31      CL       0.900000       12.0110           0
      6801 MEMB     53       DPPC     O32      OBL     -0.630000       15.9994           0
      6802 MEMB     53       DPPC     C32      CTL2    -0.220000       12.0110           0
      6803 MEMB     53       DPPC     H2X      HAL2     0.900000E-01   1.00800           0
      6804 MEMB     53       DPPC     H2Y      HAL2     0.900000E-01   1.00800           0
      6805 MEMB     53       DPPC     C23      CTL2    -0.180000       12.0110           0
      6806 MEMB     53       DPPC     H3R      HAL2     0.900000E-01   1.00800           0
      6807 MEMB     53       DPPC     H3S      HAL2     0.900000E-01   1.00800           0
      6808 MEMB     53       DPPC     C24      CTL2    -0.180000       12.0110           0
      6809 MEMB     53       DPPC     H4R      HAL2     0.900000E-01   1.00800           0
      6810 MEMB     53       DPPC     H4S      HAL2     0.900000E-01   1.00800           0
      6811 MEMB     53       DPPC     C25      CTL2    -0.180000       12.0110           0
      6812 MEMB     53       DPPC     H5R      HAL2     0.900000E-01   1.00800           0
      6813 MEMB     53       DPPC     H5S      HAL2     0.900000E-01   1.00800           0
      6814 MEMB     53       DPPC     C26      CTL2    -0.180000       12.0110           0
      6815 MEMB     53       DPPC     H6R      HAL2     0.900000E-01   1.00800           0
      6816 MEMB     53       DPPC     H6S      HAL2     0.900000E-01   1.00800           0
      6817 MEMB     53       DPPC     C27      CTL2    -0.180000       12.0110           0
      6818 MEMB     53       DPPC     H7R      HAL2     0.900000E-01   1.00800           0
      6819 MEMB     53       DPPC     H7S      HAL2     0.900000E-01   1.00800           0
      6820 MEMB     53       DPPC     C28      CTL2    -0.180000       12.0110           0
      6821 MEMB     53       DPPC     H8R      HAL2     0.900000E-01   1.00800           0
      6822 MEMB     53       DPPC     H8S      HAL2     0.900000E-01   1.00800           0
      6823 MEMB     53       DPPC     C29      CTL2    -0.180000       12.0110           0
      6824 MEMB     53       DPPC     H9R      HAL2     0.900000E-01   1.00800           0
      6825 MEMB     53       DPPC     H9S      HAL2     0.900000E-01   1.00800           0
      6826 MEMB     53       DPPC     C210     CTL2    -0.180000       12.0110           0
      6827 MEMB     53       DPPC     H10R     HAL2     0.900000E-01   1.00800           0
      6828 MEMB     53       DPPC     H10S     HAL2     0.900000E-01   1.00800           0
      6829 MEMB     53       DPPC     C211     CTL2    -0.180000       12.0110           0
      6830 MEMB     53       DPPC     H11R     HAL2     0.900000E-01   1.00800           0
      6831 MEMB     53       DPPC     H11S     HAL2     0.900000E-01   1.00800           0
      6832 MEMB     53       DPPC     C212     CTL2    -0.180000       12.0110           0
      6833 MEMB     53       DPPC     H12R     HAL2     0.900000E-01   1.00800           0
      6834 MEMB     53       DPPC     H12S     HAL2     0.900000E-01   1.00800           0
      6835 MEMB     53       DPPC     C213     CTL2    -0.180000       12.0110           0
      6836 MEMB     53       DPPC     H13R     HAL2     0.900000E-01   1.00800           0
      6837 MEMB     53       DPPC     H13S     HAL2     0.900000E-01   1.00800           0
      6838 MEMB     53       DPPC     C214     CTL2    -0.180000       12.0110           0
      6839 MEMB     53       DPPC     H14R     HAL2     0.900000E-01   1.00800           0
      6840 MEMB     53       DPPC     H14S     HAL2     0.900000E-01   1.00800           0
      6841 MEMB     53       DPPC     C215     CTL2    -0.180000       12.0110           0
      6842 MEMB     53       DPPC     H15R     HAL2     0.900000E-01   1.00800           0
      6843 MEMB     53       DPPC     H15S     HAL2     0.900000E-01   1.00800           0
      6844 MEMB     53       DPPC     C216     CTL3    -0.270000       12.0110           0
      6845 MEMB     53       DPPC     H16R     HAL3     0.900000E-01   1.00800           0
      6846 MEMB     53       DPPC     H16S     HAL3     0.900000E-01   1.00800           0
      6847 MEMB     53       DPPC     H16T     HAL3     0.900000E-01   1.00800           0
      6848 MEMB     53       DPPC     C33      CTL2    -0.180000       12.0110           0
      6849 MEMB     53       DPPC     H3X      HAL2     0.900000E-01   1.00800           0
      6850 MEMB     53       DPPC     H3Y      HAL2     0.900000E-01   1.00800           0
      6851 MEMB     53       DPPC     C34      CTL2    -0.180000       12.0110           0
      6852 MEMB     53       DPPC     H4X      HAL2     0.900000E-01   1.00800           0
      6853 MEMB     53       DPPC     H4Y      HAL2     0.900000E-01   1.00800           0
      6854 MEMB     53       DPPC     C35      CTL2    -0.180000       12.0110           0
      6855 MEMB     53       DPPC     H5X      HAL2     0.900000E-01   1.00800           0
      6856 MEMB     53       DPPC     H5Y      HAL2     0.900000E-01   1.00800           0
      6857 MEMB     53       DPPC     C36      CTL2    -0.180000       12.0110           0
      6858 MEMB     53       DPPC     H6X      HAL2     0.900000E-01   1.00800           0
      6859 MEMB     53       DPPC     H6Y      HAL2     0.900000E-01   1.00800           0
      6860 MEMB     53       DPPC     C37      CTL2    -0.180000       12.0110           0
      6861 MEMB     53       DPPC     H7X      HAL2     0.900000E-01   1.00800           0
      6862 MEMB     53       DPPC     H7Y      HAL2     0.900000E-01   1.00800           0
      6863 MEMB     53       DPPC     C38      CTL2    -0.180000       12.0110           0
      6864 MEMB     53       DPPC     H8X      HAL2     0.900000E-01   1.00800           0
      6865 MEMB     53       DPPC     H8Y      HAL2     0.900000E-01   1.00800           0
      6866 MEMB     53       DPPC     C39      CTL2    -0.180000       12.0110           0
      6867 MEMB     53       DPPC     H9X      HAL2     0.900000E-01   1.00800           0
      6868 MEMB     53       DPPC     H9Y      HAL2     0.900000E-01   1.00800           0
      6869 MEMB     53       DPPC     C310     CTL2    -0.180000       12.0110           0
      6870 MEMB     53       DPPC     H10X     HAL2     0.900000E-01   1.00800           0
      6871 MEMB     53       DPPC     H10Y     HAL2     0.900000E-01   1.00800           0
      6872 MEMB     53       DPPC     C311     CTL2    -0.180000       12.0110           0
      6873 MEMB     53       DPPC     H11X     HAL2     0.900000E-01   1.00800           0
      6874 MEMB     53       DPPC     H11Y     HAL2     0.900000E-01   1.00800           0
      6875 MEMB     53       DPPC     C312     CTL2    -0.180000       12.0110           0
      6876 MEMB     53       DPPC     H12X     HAL2     0.900000E-01   1.00800           0
      6877 MEMB     53       DPPC     H12Y     HAL2     0.900000E-01   1.00800           0
      6878 MEMB     53       DPPC     C313     CTL2    -0.180000       12.0110           0
      6879 MEMB     53       DPPC     H13X     HAL2     0.900000E-01   1.00800           0
      6880 MEMB     53       DPPC     H13Y     HAL2     0.900000E-01   1.00800           0
      6881 MEMB     53       DPPC     C314     CTL2    -0.180000       12.0110           0
      6882 MEMB     53       DPPC     H14X     HAL2     0.900000E-01   1.00800           0
      6883 MEMB     53       DPPC     H14Y     HAL2     0.900000E-01   1.00800           0
      6884 MEMB     53       DPPC     C315     CTL2    -0.180000       12.0110           0
      6885 MEMB     53       DPPC     H15X     HAL2     0.900000E-01   1.00800           0
      6886 MEMB     53       DPPC     H15Y     HAL2     0.900000E-01   1.00800           0
      6887 MEMB     53       DPPC     C316     CTL3    -0.270000       12.0110           0
      6888 MEMB     53       DPPC     H16X     HAL3     0.900000E-01   1.00800           0
      6889 MEMB     53       DPPC     H16Y     HAL3     0.900000E-01   1.00800           0
      6890 MEMB     53       DPPC     H16Z     HAL3     0.900000E-01   1.00800           0
      6891 MEMB     54       DPPC     N        NTL     -0.600000       14.0070           0
      6892 MEMB     54       DPPC     C13      CTL5    -0.350000       12.0110           0
      6893 MEMB     54       DPPC     H13A     HL       0.250000       1.00800           0
      6894 MEMB     54       DPPC     H13B     HL       0.250000       1.00800           0
      6895 MEMB     54       DPPC     H13C     HL       0.250000       1.00800           0
      6896 MEMB     54       DPPC     C14      CTL5    -0.350000       12.0110           0
      6897 MEMB     54       DPPC     H14A     HL       0.250000       1.00800           0
      6898 MEMB     54       DPPC     H14B     HL       0.250000       1.00800           0
      6899 MEMB     54       DPPC     H14C     HL       0.250000       1.00800           0
      6900 MEMB     54       DPPC     C15      CTL5    -0.350000       12.0110           0
      6901 MEMB     54       DPPC     H15A     HL       0.250000       1.00800           0
      6902 MEMB     54       DPPC     H15B     HL       0.250000       1.00800           0
      6903 MEMB     54       DPPC     H15C     HL       0.250000       1.00800           0
      6904 MEMB     54       DPPC     C12      CTL2    -0.100000       12.0110           0
      6905 MEMB     54       DPPC     H12A     HL       0.250000       1.00800           0
      6906 MEMB     54       DPPC     H12B     HL       0.250000       1.00800           0
      6907 MEMB     54       DPPC     C11      CTL2    -0.800000E-01   12.0110           0
      6908 MEMB     54       DPPC     H11A     HAL2     0.900000E-01   1.00800           0
      6909 MEMB     54       DPPC     H11B     HAL2     0.900000E-01   1.00800           0
      6910 MEMB     54       DPPC     P        PL       1.500000       30.9740           0
      6911 MEMB     54       DPPC     O13      O2L     -0.780000       15.9994           0
      6912 MEMB     54       DPPC     O14      O2L     -0.780000       15.9994           0
      6913 MEMB     54       DPPC     O11      OSLP    -0.570000       15.9994           0
      6914 MEMB     54       DPPC     O12      OSLP    -0.570000       15.9994           0
      6915 MEMB     54       DPPC     C1       CTL2    -0.800000E-01   12.0110           0
      6916 MEMB     54       DPPC     HA       HAL2     0.900000E-01   1.00800           0
      6917 MEMB     54       DPPC     HB       HAL2     0.900000E-01   1.00800           0
      6918 MEMB     54       DPPC     C2       CTL1     0.170000       12.0110           0
      6919 MEMB     54       DPPC     HS       HAL1     0.900000E-01   1.00800           0
      6920 MEMB     54       DPPC     O21      OSL     -0.490000       15.9994           0
      6921 MEMB     54       DPPC     C21      CL       0.900000       12.0110           0
      6922 MEMB     54       DPPC     O22      OBL     -0.630000       15.9994           0
      6923 MEMB     54       DPPC     C22      CTL2    -0.220000       12.0110           0
      6924 MEMB     54       DPPC     H2R      HAL2     0.900000E-01   1.00800           0
      6925 MEMB     54       DPPC     H2S      HAL2     0.900000E-01   1.00800           0
      6926 MEMB     54       DPPC     C3       CTL2     0.800000E-01   12.0110           0
      6927 MEMB     54       DPPC     HX       HAL2     0.900000E-01   1.00800           0
      6928 MEMB     54       DPPC     HY       HAL2     0.900000E-01   1.00800           0
      6929 MEMB     54       DPPC     O31      OSL     -0.490000       15.9994           0
      6930 MEMB     54       DPPC     C31      CL       0.900000       12.0110           0
      6931 MEMB     54       DPPC     O32      OBL     -0.630000       15.9994           0
      6932 MEMB     54       DPPC     C32      CTL2    -0.220000       12.0110           0
      6933 MEMB     54       DPPC     H2X      HAL2     0.900000E-01   1.00800           0
      6934 MEMB     54       DPPC     H2Y      HAL2     0.900000E-01   1.00800           0
      6935 MEMB     54       DPPC     C23      CTL2    -0.180000       12.0110           0
      6936 MEMB     54       DPPC     H3R      HAL2     0.900000E-01   1.00800           0
      6937 MEMB     54       DPPC     H3S      HAL2     0.900000E-01   1.00800           0
      6938 MEMB     54       DPPC     C24      CTL2    -0.180000       12.0110           0
      6939 MEMB     54       DPPC     H4R      HAL2     0.900000E-01   1.00800           0
      6940 MEMB     54       DPPC     H4S      HAL2     0.900000E-01   1.00800           0
      6941 MEMB     54       DPPC     C25      CTL2    -0.180000       12.0110           0
      6942 MEMB     54       DPPC     H5R      HAL2     0.900000E-01   1.00800           0
      6943 MEMB     54       DPPC     H5S      HAL2     0.900000E-01   1.00800           0
      6944 MEMB     54       DPPC     C26      CTL2    -0.180000       12.0110           0
      6945 MEMB     54       DPPC     H6R      HAL2     0.900000E-01   1.00800           0
      6946 MEMB     54       DPPC     H6S      HAL2     0.900000E-01   1.00800           0
      6947 MEMB     54       DPPC     C27      CTL2    -0.180000       12.0110           0
      6948 MEMB     54       DPPC     H7R      HAL2     0.900000E-01   1.00800           0
      6949 MEMB     54       DPPC     H7S      HAL2     0.900000E-01   1.00800           0
      6950 MEMB     54       DPPC     C28      CTL2    -0.180000       12.0110           0
      6951 MEMB     54       DPPC     H8R      HAL2     0.900000E-01   1.00800           0
      6952 MEMB     54       DPPC     H8S      HAL2     0.900000E-01   1.00800           0
      6953 MEMB     54       DPPC     C29      CTL2    -0.180000       12.0110           0
      6954 MEMB     54       DPPC     H9R      HAL2     0.900000E-01   1.00800           0
      6955 MEMB     54       DPPC     H9S      HAL2     0.900000E-01   1.00800           0
      6956 MEMB     54       DPPC     C210     CTL2    -0.180000       12.0110           0
      6957 MEMB     54       DPPC     H10R     HAL2     0.900000E-01   1.00800           0
      6958 MEMB     54       DPPC     H10S     HAL2     0.900000E-01   1.00800           0
      6959 MEMB     54       DPPC     C211     CTL2    -0.180000       12.0110           0
      6960 MEMB     54       DPPC     H11R     HAL2     0.900000E-01   1.00800           0
      6961 MEMB     54       DPPC     H11S     HAL2     0.900000E-01   1.00800           0
      6962 MEMB     54       DPPC     C212     CTL2    -0.180000       12.0110           0
      6963 MEMB     54       DPPC     H12R     HAL2     0.900000E-01   1.00800           0
      6964 MEMB     54       DPPC     H12S     HAL2     0.900000E-01   1.00800           0
      6965 MEMB     54       DPPC     C213     CTL2    -0.180000       12.0110           0
      6966 MEMB     54       DPPC     H13R     HAL2     0.900000E-01   1.00800           0
      6967 MEMB     54       DPPC     H13S     HAL2     0.900000E-01   1.00800           0
      6968 MEMB     54       DPPC     C214     CTL2    -0.180000       12.0110           0
      6969 MEMB     54       DPPC     H14R     HAL2     0.900000E-01   1.00800           0
      6970 MEMB     54       DPPC     H14S     HAL2     0.900000E-01   1.00800           0
      6971 MEMB     54       DPPC     C215     CTL2    -0.180000       12.0110           0
      6972 MEMB     54       DPPC     H15R     HAL2     0.900000E-01   1.00800           0
      6973 MEMB     54       DPPC     H15S     HAL2     0.900000E-01   1.00800           0
      6974 MEMB     54       DPPC     C216     CTL3    -0.270000       12.0110           0
      6975 MEMB     54       DPPC     H16R     HAL3     0.900000E-01   1.00800           0
      6976 MEMB     54       DPPC     H16S     HAL3     0.900000E-01   1.00800           0
      6977 MEMB     54       DPPC     H16T     HAL3     0.900000E-01   1.00800           0
      6978 MEMB     54       DPPC     C33      CTL2    -0.180000       12.0110           0
      6979 MEMB     54       DPPC     H3X      HAL2     0.900000E-01   1.00800           0
      6980 MEMB     54       DPPC     H3Y      HAL2     0.900000E-01   1.00800           0
      6981 MEMB     54       DPPC     C34      CTL2    -0.180000       12.0110           0
      6982 MEMB     54       DPPC     H4X      HAL2     0.900000E-01   1.00800           0
      6983 MEMB     54       DPPC     H4Y      HAL2     0.900000E-01   1.00800           0
      6984 MEMB     54       DPPC     C35      CTL2    -0.180000       12.0110           0
      6985 MEMB     54       DPPC     H5X      HAL2     0.900000E-01   1.00800           0
      6986 MEMB     54       DPPC     H5Y      HAL2     0.900000E-01   1.00800           0
      6987 MEMB     54       DPPC     C36      CTL2    -0.180000       12.0110           0
      6988 MEMB     54       DPPC     H6X      HAL2     0.900000E-01   1.00800           0
      6989 MEMB     54       DPPC     H6Y      HAL2     0.900000E-01   1.00800           0
      6990 MEMB     54       DPPC     C37      CTL2    -0.180000       12.0110           0
      6991 MEMB     54       DPPC     H7X      HAL2     0.900000E-01   1.00800           0
      6992 MEMB     54       DPPC     H7Y      HAL2     0.900000E-01   1.00800           0
      6993 MEMB     54       DPPC     C38      CTL2    -0.180000       12.0110           0
      6994 MEMB     54       DPPC     H8X      HAL2     0.900000E-01   1.00800           0
      6995 MEMB     54       DPPC     H8Y      HAL2     0.900000E-01   1.00800           0
      6996 MEMB     54       DPPC     C39      CTL2    -0.180000       12.0110           0
      6997 MEMB     54       DPPC     H9X      HAL2     0.900000E-01   1.00800           0
      6998 MEMB     54       DPPC     H9Y      HAL2     0.900000E-01   1.00800           0
      6999 MEMB     54       DPPC     C310     CTL2    -0.180000       12.0110           0
      7000 MEMB     54       DPPC     H10X     HAL2     0.900000E-01   1.00800           0
      7001 MEMB     54       DPPC     H10Y     HAL2     0.900000E-01   1.00800           0
      7002 MEMB     54       DPPC     C311     CTL2    -0.180000       12.0110           0
      7003 MEMB     54       DPPC     H11X     HAL2     0.900000E-01   1.00800           0
      7004 MEMB     54       DPPC     H11Y     HAL2     0.900000E-01   1.00800           0
      7005 MEMB     54       DPPC     C312     CTL2    -0.180000       12.0110           0
      7006 MEMB     54       DPPC     H12X     HAL2     0.900000E-01   1.00800           0
      7007 MEMB     54       DPPC     H12Y     HAL2     0.900000E-01   1.00800           0
      7008 MEMB     54       DPPC     C313     CTL2    -0.180000       12.0110           0
      7009 MEMB     54       DPPC     H13X     HAL2     0.900000E-01   1.00800           0
      7010 MEMB     54       DPPC     H13Y     HAL2     0.900000E-01   1.00800           0
      7011 MEMB     54       DPPC     C314     CTL2    -0.180000       12.0110           0
      7012 MEMB     54       DPPC     H14X     HAL2     0.900000E-01   1.00800           0
      7013 MEMB     54       DPPC     H14Y     HAL2     0.900000E-01   1.00800           0
      7014 MEMB     54       DPPC     C315     CTL2    -0.180000       12.0110           0
      7015 MEMB     54       DPPC     H15X     HAL2     0.900000E-01   1.00800           0
      7016 MEMB     54       DPPC     H15Y     HAL2     0.900000E-01   1.00800           0
      7017 MEMB     54       DPPC     C316     CTL3    -0.270000       12.0110           0
      7018 MEMB     54       DPPC     H16X     HAL3     0.900000E-01   1.00800           0
      7019 MEMB     54       DPPC     H16Y     HAL3     0.900000E-01   1.00800           0
      7020 MEMB     54       DPPC     H16Z     HAL3     0.900000E-01   1.00800           0
      7021 MEMB     55       DPPC     N        NTL     -0.600000       14.0070           0
      7022 MEMB     55       DPPC     C13      CTL5    -0.350000       12.0110           0
      7023 MEMB     55       DPPC     H13A     HL       0.250000       1.00800           0
      7024 MEMB     55       DPPC     H13B     HL       0.250000       1.00800           0
      7025 MEMB     55       DPPC     H13C     HL       0.250000       1.00800           0
      7026 MEMB     55       DPPC     C14      CTL5    -0.350000       12.0110           0
      7027 MEMB     55       DPPC     H14A     HL       0.250000       1.00800           0
      7028 MEMB     55       DPPC     H14B     HL       0.250000       1.00800           0
      7029 MEMB     55       DPPC     H14C     HL       0.250000       1.00800           0
      7030 MEMB     55       DPPC     C15      CTL5    -0.350000       12.0110           0
      7031 MEMB     55       DPPC     H15A     HL       0.250000       1.00800           0
      7032 MEMB     55       DPPC     H15B     HL       0.250000       1.00800           0
      7033 MEMB     55       DPPC     H15C     HL       0.250000       1.00800           0
      7034 MEMB     55       DPPC     C12      CTL2    -0.100000       12.0110           0
      7035 MEMB     55       DPPC     H12A     HL       0.250000       1.00800           0
      7036 MEMB     55       DPPC     H12B     HL       0.250000       1.00800           0
      7037 MEMB     55       DPPC     C11      CTL2    -0.800000E-01   12.0110           0
      7038 MEMB     55       DPPC     H11A     HAL2     0.900000E-01   1.00800           0
      7039 MEMB     55       DPPC     H11B     HAL2     0.900000E-01   1.00800           0
      7040 MEMB     55       DPPC     P        PL       1.500000       30.9740           0
      7041 MEMB     55       DPPC     O13      O2L     -0.780000       15.9994           0
      7042 MEMB     55       DPPC     O14      O2L     -0.780000       15.9994           0
      7043 MEMB     55       DPPC     O11      OSLP    -0.570000       15.9994           0
      7044 MEMB     55       DPPC     O12      OSLP    -0.570000       15.9994           0
      7045 MEMB     55       DPPC     C1       CTL2    -0.800000E-01   12.0110           0
      7046 MEMB     55       DPPC     HA       HAL2     0.900000E-01   1.00800           0
      7047 MEMB     55       DPPC     HB       HAL2     0.900000E-01   1.00800           0
      7048 MEMB     55       DPPC     C2       CTL1     0.170000       12.0110           0
      7049 MEMB     55       DPPC     HS       HAL1     0.900000E-01   1.00800           0
      7050 MEMB     55       DPPC     O21      OSL     -0.490000       15.9994           0
      7051 MEMB     55       DPPC     C21      CL       0.900000       12.0110           0
      7052 MEMB     55       DPPC     O22      OBL     -0.630000       15.9994           0
      7053 MEMB     55       DPPC     C22      CTL2    -0.220000       12.0110           0
      7054 MEMB     55       DPPC     H2R      HAL2     0.900000E-01   1.00800           0
      7055 MEMB     55       DPPC     H2S      HAL2     0.900000E-01   1.00800           0
      7056 MEMB     55       DPPC     C3       CTL2     0.800000E-01   12.0110           0
      7057 MEMB     55       DPPC     HX       HAL2     0.900000E-01   1.00800           0
      7058 MEMB     55       DPPC     HY       HAL2     0.900000E-01   1.00800           0
      7059 MEMB     55       DPPC     O31      OSL     -0.490000       15.9994           0
      7060 MEMB     55       DPPC     C31      CL       0.900000       12.0110           0
      7061 MEMB     55       DPPC     O32      OBL     -0.630000       15.9994           0
      7062 MEMB     55       DPPC     C32      CTL2    -0.220000       12.0110           0
      7063 MEMB     55       DPPC     H2X      HAL2     0.900000E-01   1.00800           0
      7064 MEMB     55       DPPC     H2Y      HAL2     0.900000E-01   1.00800           0
      7065 MEMB     55       DPPC     C23      CTL2    -0.180000       12.0110           0
      7066 MEMB     55       DPPC     H3R      HAL2     0.900000E-01   1.00800           0
      7067 MEMB     55       DPPC     H3S      HAL2     0.900000E-01   1.00800           0
      7068 MEMB     55       DPPC     C24      CTL2    -0.180000       12.0110           0
      7069 MEMB     55       DPPC     H4R      HAL2     0.900000E-01   1.00800           0
      7070 MEMB     55       DPPC     H4S      HAL2     0.900000E-01   1.00800           0
      7071 MEMB     55       DPPC     C25      CTL2    -0.180000       12.0110           0
      7072 MEMB     55       DPPC     H5R      HAL2     0.900000E-01   1.00800           0
      7073 MEMB     55       DPPC     H5S      HAL2     0.900000E-01   1.00800           0
      7074 MEMB     55       DPPC     C26      CTL2    -0.180000       12.0110           0
      7075 MEMB     55       DPPC     H6R      HAL2     0.900000E-01   1.00800           0
      7076 MEMB     55       DPPC     H6S      HAL2     0.900000E-01   1.00800           0
      7077 MEMB     55       DPPC     C27      CTL2    -0.180000       12.0110           0
      7078 MEMB     55       DPPC     H7R      HAL2     0.900000E-01   1.00800           0
      7079 MEMB     55       DPPC     H7S      HAL2     0.900000E-01   1.00800           0
      7080 MEMB     55       DPPC     C28      CTL2    -0.180000       12.0110           0
      7081 MEMB     55       DPPC     H8R      HAL2     0.900000E-01   1.00800           0
      7082 MEMB     55       DPPC     H8S      HAL2     0.900000E-01   1.00800           0
      7083 MEMB     55       DPPC     C29      CTL2    -0.180000       12.0110           0
      7084 MEMB     55       DPPC     H9R      HAL2     0.900000E-01   1.00800           0
      7085 MEMB     55       DPPC     H9S      HAL2     0.900000E-01   1.00800           0
      7086 MEMB     55       DPPC     C210     CTL2    -0.180000       12.0110           0
      7087 MEMB     55       DPPC     H10R     HAL2     0.900000E-01   1.00800           0
      7088 MEMB     55       DPPC     H10S     HAL2     0.900000E-01   1.00800           0
      7089 MEMB     55       DPPC     C211     CTL2    -0.180000       12.0110           0
      7090 MEMB     55       DPPC     H11R     HAL2     0.900000E-01   1.00800           0
      7091 MEMB     55       DPPC     H11S     HAL2     0.900000E-01   1.00800           0
      7092 MEMB     55       DPPC     C212     CTL2    -0.180000       12.0110           0
      7093 MEMB     55       DPPC     H12R     HAL2     0.900000E-01   1.00800           0
      7094 MEMB     55       DPPC     H12S     HAL2     0.900000E-01   1.00800           0
      7095 MEMB     55       DPPC     C213     CTL2    -0.180000       12.0110           0
      7096 MEMB     55       DPPC     H13R     HAL2     0.900000E-01   1.00800           0
      7097 MEMB     55       DPPC     H13S     HAL2     0.900000E-01   1.00800           0
      7098 MEMB     55       DPPC     C214     CTL2    -0.180000       12.0110           0
      7099 MEMB     55       DPPC     H14R     HAL2     0.900000E-01   1.00800           0
      7100 MEMB     55       DPPC     H14S     HAL2     0.900000E-01   1.00800           0
      7101 MEMB     55       DPPC     C215     CTL2    -0.180000       12.0110           0
      7102 MEMB     55       DPPC     H15R     HAL2     0.900000E-01   1.00800           0
      7103 MEMB     55       DPPC     H15S     HAL2     0.900000E-01   1.00800           0
      7104 MEMB     55       DPPC     C216     CTL3    -0.270000       12.0110           0
      7105 MEMB     55       DPPC     H16R     HAL3     0.900000E-01   1.00800           0
      7106 MEMB     55       DPPC     H16S     HAL3     0.900000E-01   1.00800           0
      7107 MEMB     55       DPPC     H16T     HAL3     0.900000E-01   1.00800           0
      7108 MEMB     55       DPPC     C33      CTL2    -0.180000       12.0110           0
      7109 MEMB     55       DPPC     H3X      HAL2     0.900000E-01   1.00800           0
      7110 MEMB     55       DPPC     H3Y      HAL2     0.900000E-01   1.00800           0
      7111 MEMB     55       DPPC     C34      CTL2    -0.180000       12.0110           0
      7112 MEMB     55       DPPC     H4X      HAL2     0.900000E-01   1.00800           0
      7113 MEMB     55       DPPC     H4Y      HAL2     0.900000E-01   1.00800           0
      7114 MEMB     55       DPPC     C35      CTL2    -0.180000       12.0110           0
      7115 MEMB     55       DPPC     H5X      HAL2     0.900000E-01   1.00800           0
      7116 MEMB     55       DPPC     H5Y      HAL2     0.900000E-01   1.00800           0
      7117 MEMB     55       DPPC     C36      CTL2    -0.180000       12.0110           0
      7118 MEMB     55       DPPC     H6X      HAL2     0.900000E-01   1.00800           0
      7119 MEMB     55       DPPC     H6Y      HAL2     0.900000E-01   1.00800           0
      7120 MEMB     55       DPPC     C37      CTL2    -0.180000       12.0110           0
      7121 MEMB     55       DPPC     H7X      HAL2     0.900000E-01   1.00800           0
      7122 MEMB     55       DPPC     H7Y      HAL2     0.900000E-01   1.00800           0
      7123 MEMB     55       DPPC     C38      CTL2    -0.180000       12.0110           0
      7124 MEMB     55       DPPC     H8X      HAL2     0.900000E-01   1.00800           0
      7125 MEMB     55       DPPC     H8Y      HAL2     0.900000E-01   1.00800           0
      7126 MEMB     55       DPPC     C39      CTL2    -0.180000       12.0110           0
      7127 MEMB     55       DPPC     H9X      HAL2     0.900000E-01   1.00800           0
      7128 MEMB     55       DPPC     H9Y      HAL2     0.900000E-01   1.00800           0
      7129 MEMB     55       DPPC     C310     CTL2    -0.180000       12.0110           0
      7130 MEMB     55       DPPC     H10X     HAL2     0.900000E-01   1.00800           0
      7131 MEMB     55       DPPC     H10Y     HAL2     0.900000E-01   1.00800           0
      7132 MEMB     55       DPPC     C311     CTL2    -0.180000       12.0110           0
      7133 MEMB     55       DPPC     H11X     HAL2     0.900000E-01   1.00800           0
      7134 MEMB     55       DPPC     H11Y     HAL2     0.900000E-01   1.00800           0
      7135 MEMB     55       DPPC     C312     CTL2    -0.180000       12.0110           0
      7136 MEMB     55       DPPC     H12X     HAL2     0.900000E-01   1.00800           0
      7137 MEMB     55       DPPC     H12Y     HAL2     0.900000E-01   1.00800           0
      7138 MEMB     55       DPPC     C313     CTL2    -0.180000       12.0110           0
      7139 MEMB     55       DPPC     H13X     HAL2     0.900000E-01   1.00800           0
      7140 MEMB     55       DPPC     H13Y     HAL2     0.900000E-01   1.00800           0
      7141 MEMB     55       DPPC     C314     CTL2    -0.180000       12.0110           0
      7142 MEMB     55       DPPC     H14X     HAL2     0.900000E-01   1.00800           0
      7143 MEMB     55       DPPC     H14Y     HAL2     0.900000E-01   1.00800           0
      7144 MEMB     55       DPPC     C315     CTL2    -0.180000       12.0110           0
      7145 MEMB     55       DPPC     H15X     HAL2     0.900000E-01   1.00800           0
      7146 MEMB     55       DPPC     H15Y     HAL2     0.900000E-01   1.00800           0
      7147 MEMB     55       DPPC     C316     CTL3    -0.270000       12.0110           0
      7148 MEMB     55       DPPC     H16X     HAL3     0.900000E-01   1.00800           0
      7149 MEMB     55       DPPC     H16Y     HAL3     0.900000E-01   1.00800           0
      7150 MEMB     55       DPPC     H16Z     HAL3     0.900000E-01   1.00800           0
      7151 MEMB     56       DPPC     N        NTL     -0.600000       14.0070           0
      7152 MEMB     56       DPPC     C13      CTL5    -0.350000       12.0110           0
      7153 MEMB     56       DPPC     H13A     HL       0.250000       1.00800           0
      7154 MEMB     56       DPPC     H13B     HL       0.250000       1.00800           0
      7155 MEMB     56       DPPC     H13C     HL       0.250000       1.00800           0
      7156 MEMB     56       DPPC     C14      CTL5    -0.350000       12.0110           0
      7157 MEMB     56       DPPC     H14A     HL       0.250000       1.00800           0
      7158 MEMB     56       DPPC     H14B     HL       0.250000       1.00800           0
      7159 MEMB     56       DPPC     H14C     HL       0.250000       1.00800           0
      7160 MEMB     56       DPPC     C15      CTL5    -0.350000       12.0110           0
      7161 MEMB     56       DPPC     H15A     HL       0.250000       1.00800           0
      7162 MEMB     56       DPPC     H15B     HL       0.250000       1.00800           0
      7163 MEMB     56       DPPC     H15C     HL       0.250000       1.00800           0
      7164 MEMB     56       DPPC     C12      CTL2    -0.100000       12.0110           0
      7165 MEMB     56       DPPC     H12A     HL       0.250000       1.00800           0
      7166 MEMB     56       DPPC     H12B     HL       0.250000       1.00800           0
      7167 MEMB     56       DPPC     C11      CTL2    -0.800000E-01   12.0110           0
      7168 MEMB     56       DPPC     H11A     HAL2     0.900000E-01   1.00800           0
      7169 MEMB     56       DPPC     H11B     HAL2     0.900000E-01   1.00800           0
      7170 MEMB     56       DPPC     P        PL       1.500000       30.9740           0
      7171 MEMB     56       DPPC     O13      O2L     -0.780000       15.9994           0
      7172 MEMB     56       DPPC     O14      O2L     -0.780000       15.9994           0
      7173 MEMB     56       DPPC     O11      OSLP    -0.570000       15.9994           0
      7174 MEMB     56       DPPC     O12      OSLP    -0.570000       15.9994           0
      7175 MEMB     56       DPPC     C1       CTL2    -0.800000E-01   12.0110           0
      7176 MEMB     56       DPPC     HA       HAL2     0.900000E-01   1.00800           0
      7177 MEMB     56       DPPC     HB       HAL2     0.900000E-01   1.00800           0
      7178 MEMB     56       DPPC     C2       CTL1     0.170000       12.0110           0
      7179 MEMB     56       DPPC     HS       HAL1     0.900000E-01   1.00800           0
      7180 MEMB     56       DPPC     O21      OSL     -0.490000       15.9994           0
      7181 MEMB     56       DPPC     C21      CL       0.900000       12.0110           0
      7182 MEMB     56       DPPC     O22      OBL     -0.630000       15.9994           0
      7183 MEMB     56       DPPC     C22      CTL2    -0.220000       12.0110           0
      7184 MEMB     56       DPPC     H2R      HAL2     0.900000E-01   1.00800           0
      7185 MEMB     56       DPPC     H2S      HAL2     0.900000E-01   1.00800           0
      7186 MEMB     56       DPPC     C3       CTL2     0.800000E-01   12.0110           0
      7187 MEMB     56       DPPC     HX       HAL2     0.900000E-01   1.00800           0
      7188 MEMB     56       DPPC     HY       HAL2     0.900000E-01   1.00800           0
      7189 MEMB     56       DPPC     O31      OSL     -0.490000       15.9994           0
      7190 MEMB     56       DPPC     C31      CL       0.900000       12.0110           0
      7191 MEMB     56       DPPC     O32      OBL     -0.630000       15.9994           0
      7192 MEMB     56       DPPC     C32      CTL2    -0.220000       12.0110           0
      7193 MEMB     56       DPPC     H2X      HAL2     0.900000E-01   1.00800           0
      7194 MEMB     56       DPPC     H2Y      HAL2     0.900000E-01   1.00800           0
      7195 MEMB     56       DPPC     C23      CTL2    -0.180000       12.0110           0
      7196 MEMB     56       DPPC     H3R      HAL2     0.900000E-01   1.00800           0
      7197 MEMB     56       DPPC     H3S      HAL2     0.900000E-01   1.00800           0
      7198 MEMB     56       DPPC     C24      CTL2    -0.180000       12.0110           0
      7199 MEMB     56       DPPC     H4R      HAL2     0.900000E-01   1.00800           0
      7200 MEMB     56       DPPC     H4S      HAL2     0.900000E-01   1.00800           0
      7201 MEMB     56       DPPC     C25      CTL2    -0.180000       12.0110           0
      7202 MEMB     56       DPPC     H5R      HAL2     0.900000E-01   1.00800           0
      7203 MEMB     56       DPPC     H5S      HAL2     0.900000E-01   1.00800           0
      7204 MEMB     56       DPPC     C26      CTL2    -0.180000       12.0110           0
      7205 MEMB     56       DPPC     H6R      HAL2     0.900000E-01   1.00800           0
      7206 MEMB     56       DPPC     H6S      HAL2     0.900000E-01   1.00800           0
      7207 MEMB     56       DPPC     C27      CTL2    -0.180000       12.0110           0
      7208 MEMB     56       DPPC     H7R      HAL2     0.900000E-01   1.00800           0
      7209 MEMB     56       DPPC     H7S      HAL2     0.900000E-01   1.00800           0
      7210 MEMB     56       DPPC     C28      CTL2    -0.180000       12.0110           0
      7211 MEMB     56       DPPC     H8R      HAL2     0.900000E-01   1.00800           0
      7212 MEMB     56       DPPC     H8S      HAL2     0.900000E-01   1.00800           0
      7213 MEMB     56       DPPC     C29      CTL2    -0.180000       12.0110           0
      7214 MEMB     56       DPPC     H9R      HAL2     0.900000E-01   1.00800           0
      7215 MEMB     56       DPPC     H9S      HAL2     0.900000E-01   1.00800           0
      7216 MEMB     56       DPPC     C210     CTL2    -0.180000       12.0110           0
      7217 MEMB     56       DPPC     H10R     HAL2     0.900000E-01   1.00800           0
      7218 MEMB     56       DPPC     H10S     HAL2     0.900000E-01   1.00800           0
      7219 MEMB     56       DPPC     C211     CTL2    -0.180000       12.0110           0
      7220 MEMB     56       DPPC     H11R     HAL2     0.900000E-01   1.00800           0
      7221 MEMB     56       DPPC     H11S     HAL2     0.900000E-01   1.00800           0
      7222 MEMB     56       DPPC     C212     CTL2    -0.180000       12.0110           0
      7223 MEMB     56       DPPC     H12R     HAL2     0.900000E-01   1.00800           0
      7224 MEMB     56       DPPC     H12S     HAL2     0.900000E-01   1.00800           0
      7225 MEMB     56       DPPC     C213     CTL2    -0.180000       12.0110           0
      7226 MEMB     56       DPPC     H13R     HAL2     0.900000E-01   1.00800           0
      7227 MEMB     56       DPPC     H13S     HAL2     0.900000E-01   1.00800           0
      7228 MEMB     56       DPPC     C214     CTL2    -0.180000       12.0110           0
      7229 MEMB     56       DPPC     H14R     HAL2     0.900000E-01   1.00800           0
      7230 MEMB     56       DPPC     H14S     HAL2     0.900000E-01   1.00800           0
      7231 MEMB     56       DPPC     C215     CTL2    -0.180000       12.0110           0
      7232 MEMB     56       DPPC     H15R     HAL2     0.900000E-01   1.00800           0
      7233 MEMB     56       DPPC     H15S     HAL2     0.900000E-01   1.00800           0
      7234 MEMB     56       DPPC     C216     CTL3    -0.270000       12.0110           0
      7235 MEMB     56       DPPC     H16R     HAL3     0.900000E-01   1.00800           0
      7236 MEMB     56       DPPC     H16S     HAL3     0.900000E-01   1.00800           0
      7237 MEMB     56       DPPC     H16T     HAL3     0.900000E-01   1.00800           0
      7238 MEMB     56       DPPC     C33      CTL2    -0.180000       12.0110           0
      7239 MEMB     56       DPPC     H3X      HAL2     0.900000E-01   1.00800           0
      7240 MEMB     56       DPPC     H3Y      HAL2     0.900000E-01   1.00800           0
      7241 MEMB     56       DPPC     C34      CTL2    -0.180000       12.0110           0
      7242 MEMB     56       DPPC     H4X      HAL2     0.900000E-01   1.00800           0
      7243 MEMB     56       DPPC     H4Y      HAL2     0.900000E-01   1.00800           0
      7244 MEMB     56       DPPC     C35      CTL2    -0.180000       12.0110           0
      7245 MEMB     56       DPPC     H5X      HAL2     0.900000E-01   1.00800           0
      7246 MEMB     56       DPPC     H5Y      HAL2     0.900000E-01   1.00800           0
      7247 MEMB     56       DPPC     C36      CTL2    -0.180000       12.0110           0
      7248 MEMB     56       DPPC     H6X      HAL2     0.900000E-01   1.00800           0
      7249 MEMB     56       DPPC     H6Y      HAL2     0.900000E-01   1.00800           0
      7250 MEMB     56       DPPC     C37      CTL2    -0.180000       12.0110           0
      7251 MEMB     56       DPPC     H7X      HAL2     0.900000E-01   1.00800           0
      7252 MEMB     56       DPPC     H7Y      HAL2     0.900000E-01   1.00800           0
      7253 MEMB     56       DPPC     C38      CTL2    -0.180000       12.0110           0
      7254 MEMB     56       DPPC     H8X      HAL2     0.900000E-01   1.00800           0
      7255 MEMB     56       DPPC     H8Y      HAL2     0.900000E-01   1.00800           0
      7256 MEMB     56       DPPC     C39      CTL2    -0.180000       12.0110           0
      7257 MEMB     56       DPPC     H9X      HAL2     0.900000E-01   1.00800           0
      7258 MEMB     56       DPPC     H9Y      HAL2     0.900000E-01   1.00800           0
      7259 MEMB     56       DPPC     C310     CTL2    -0.180000       12.0110           0
      7260 MEMB     56       DPPC     H10X     HAL2     0.900000E-01   1.00800           0
      7261 MEMB     56       DPPC     H10Y     HAL2     0.900000E-01   1.00800           0
      7262 MEMB     56       DPPC     C311     CTL2    -0.180000       12.0110           0
      7263 MEMB     56       DPPC     H11X     HAL2     0.900000E-01   1.00800           0
      7264 MEMB     56       DPPC     H11Y     HAL2     0.900000E-01   1.00800           0
      7265 MEMB     56       DPPC     C312     CTL2    -0.180000       12.0110           0
      7266 MEMB     56       DPPC     H12X     HAL2     0.900000E-01   1.00800           0
      7267 MEMB     56       DPPC     H12Y     HAL2     0.900000E-01   1.00800           0
      7268 MEMB     56       DPPC     C313     CTL2    -0.180000       12.0110           0
      7269 MEMB     56       DPPC     H13X     HAL2     0.900000E-01   1.00800           0
      7270 MEMB     56       DPPC     H13Y     HAL2     0.900000E-01   1.00800           0
      7271 MEMB     56       DPPC     C314     CTL2    -0.180000       12.0110           0
      7272 MEMB     56       DPPC     H14X     HAL2     0.900000E-01   1.00800           0
      7273 MEMB     56       DPPC     H14Y     HAL2     0.900000E-01   1.00800           0
      7274 MEMB     56       DPPC     C315     CTL2    -0.180000       12.0110           0
      7275 MEMB     56       DPPC     H15X     HAL2     0.900000E-01   1.00800           0
      7276 MEMB     56       DPPC     H15Y     HAL2     0.900000E-01   1.00800           0
      7277 MEMB     56       DPPC     C316     CTL3    -0.270000       12.0110           0
      7278 MEMB     56       DPPC     H16X     HAL3     0.900000E-01   1.00800           0
      7279 MEMB     56       DPPC     H16Y     HAL3     0.900000E-01   1.00800           0
      7280 MEMB     56       DPPC     H16Z     HAL3     0.900000E-01   1.00800           0
      7281 MEMB     57       DPPC     N        NTL     -0.600000       14.0070           0
      7282 MEMB     57       DPPC     C13      CTL5    -0.350000       12.0110           0
      7283 MEMB     57       DPPC     H13A     HL       0.250000       1.00800           0
      7284 MEMB     57       DPPC     H13B     HL       0.250000       1.00800           0
      7285 MEMB     57       DPPC     H13C     HL       0.250000       1.00800           0
      7286 MEMB     57       DPPC     C14      CTL5    -0.350000       12.0110           0
      7287 MEMB     57       DPPC     H14A     HL       0.250000       1.00800           0
      7288 MEMB     57       DPPC     H14B     HL       0.250000       1.00800           0
      7289 MEMB     57       DPPC     H14C     HL       0.250000       1.00800           0
      7290 MEMB     57       DPPC     C15      CTL5    -0.350000       12.0110           0
      7291 MEMB     57       DPPC     H15A     HL       0.250000       1.00800           0
      7292 MEMB     57       DPPC     H15B     HL       0.250000       1.00800           0
      7293 MEMB     57       DPPC     H15C     HL       0.250000       1.00800           0
      7294 MEMB     57       DPPC     C12      CTL2    -0.100000       12.0110           0
      7295 MEMB     57       DPPC     H12A     HL       0.250000       1.00800           0
      7296 MEMB     57       DPPC     H12B     HL       0.250000       1.00800           0
      7297 MEMB     57       DPPC     C11      CTL2    -0.800000E-01   12.0110           0
      7298 MEMB     57       DPPC     H11A     HAL2     0.900000E-01   1.00800           0
      7299 MEMB     57       DPPC     H11B     HAL2     0.900000E-01   1.00800           0
      7300 MEMB     57       DPPC     P        PL       1.500000       30.9740           0
      7301 MEMB     57       DPPC     O13      O2L     -0.780000       15.9994           0
      7302 MEMB     57       DPPC     O14      O2L     -0.780000       15.9994           0
      7303 MEMB     57       DPPC     O11      OSLP    -0.570000       15.9994           0
      7304 MEMB     57       DPPC     O12      OSLP    -0.570000       15.9994           0
      7305 MEMB     57       DPPC     C1       CTL2    -0.800000E-01   12.0110           0
      7306 MEMB     57       DPPC     HA       HAL2     0.900000E-01   1.00800           0
      7307 MEMB     57       DPPC     HB       HAL2     0.900000E-01   1.00800           0
      7308 MEMB     57       DPPC     C2       CTL1     0.170000       12.0110           0
      7309 MEMB     57       DPPC     HS       HAL1     0.900000E-01   1.00800           0
      7310 MEMB     57       DPPC     O21      OSL     -0.490000       15.9994           0
      7311 MEMB     57       DPPC     C21      CL       0.900000       12.0110           0
      7312 MEMB     57       DPPC     O22      OBL     -0.630000       15.9994           0
      7313 MEMB     57       DPPC     C22      CTL2    -0.220000       12.0110           0
      7314 MEMB     57       DPPC     H2R      HAL2     0.900000E-01   1.00800           0
      7315 MEMB     57       DPPC     H2S      HAL2     0.900000E-01   1.00800           0
      7316 MEMB     57       DPPC     C3       CTL2     0.800000E-01   12.0110           0
      7317 MEMB     57       DPPC     HX       HAL2     0.900000E-01   1.00800           0
      7318 MEMB     57       DPPC     HY       HAL2     0.900000E-01   1.00800           0
      7319 MEMB     57       DPPC     O31      OSL     -0.490000       15.9994           0
      7320 MEMB     57       DPPC     C31      CL       0.900000       12.0110           0
      7321 MEMB     57       DPPC     O32      OBL     -0.630000       15.9994           0
      7322 MEMB     57       DPPC     C32      CTL2    -0.220000       12.0110           0
      7323 MEMB     57       DPPC     H2X      HAL2     0.900000E-01   1.00800           0
      7324 MEMB     57       DPPC     H2Y      HAL2     0.900000E-01   1.00800           0
      7325 MEMB     57       DPPC     C23      CTL2    -0.180000       12.0110           0
      7326 MEMB     57       DPPC     H3R      HAL2     0.900000E-01   1.00800           0
      7327 MEMB     57       DPPC     H3S      HAL2     0.900000E-01   1.00800           0
      7328 MEMB     57       DPPC     C24      CTL2    -0.180000       12.0110           0
      7329 MEMB     57       DPPC     H4R      HAL2     0.900000E-01   1.00800           0
      7330 MEMB     57       DPPC     H4S      HAL2     0.900000E-01   1.00800           0
      7331 MEMB     57       DPPC     C25      CTL2    -0.180000       12.0110           0
      7332 MEMB     57       DPPC     H5R      HAL2     0.900000E-01   1.00800           0
      7333 MEMB     57       DPPC     H5S      HAL2     0.900000E-01   1.00800           0
      7334 MEMB     57       DPPC     C26      CTL2    -0.180000       12.0110           0
      7335 MEMB     57       DPPC     H6R      HAL2     0.900000E-01   1.00800           0
      7336 MEMB     57       DPPC     H6S      HAL2     0.900000E-01   1.00800           0
      7337 MEMB     57       DPPC     C27      CTL2    -0.180000       12.0110           0
      7338 MEMB     57       DPPC     H7R      HAL2     0.900000E-01   1.00800           0
      7339 MEMB     57       DPPC     H7S      HAL2     0.900000E-01   1.00800           0
      7340 MEMB     57       DPPC     C28      CTL2    -0.180000       12.0110           0
      7341 MEMB     57       DPPC     H8R      HAL2     0.900000E-01   1.00800           0
      7342 MEMB     57       DPPC     H8S      HAL2     0.900000E-01   1.00800           0
      7343 MEMB     57       DPPC     C29      CTL2    -0.180000       12.0110           0
      7344 MEMB     57       DPPC     H9R      HAL2     0.900000E-01   1.00800           0
      7345 MEMB     57       DPPC     H9S      HAL2     0.900000E-01   1.00800           0
      7346 MEMB     57       DPPC     C210     CTL2    -0.180000       12.0110           0
      7347 MEMB     57       DPPC     H10R     HAL2     0.900000E-01   1.00800           0
      7348 MEMB     57       DPPC     H10S     HAL2     0.900000E-01   1.00800           0
      7349 MEMB     57       DPPC     C211     CTL2    -0.180000       12.0110           0
      7350 MEMB     57       DPPC     H11R     HAL2     0.900000E-01   1.00800           0
      7351 MEMB     57       DPPC     H11S     HAL2     0.900000E-01   1.00800           0
      7352 MEMB     57       DPPC     C212     CTL2    -0.180000       12.0110           0
      7353 MEMB     57       DPPC     H12R     HAL2     0.900000E-01   1.00800           0
      7354 MEMB     57       DPPC     H12S     HAL2     0.900000E-01   1.00800           0
      7355 MEMB     57       DPPC     C213     CTL2    -0.180000       12.0110           0
      7356 MEMB     57       DPPC     H13R     HAL2     0.900000E-01   1.00800           0
      7357 MEMB     57       DPPC     H13S     HAL2     0.900000E-01   1.00800           0
      7358 MEMB     57       DPPC     C214     CTL2    -0.180000       12.0110           0
      7359 MEMB     57       DPPC     H14R     HAL2     0.900000E-01   1.00800           0
      7360 MEMB     57       DPPC     H14S     HAL2     0.900000E-01   1.00800           0
      7361 MEMB     57       DPPC     C215     CTL2    -0.180000       12.0110           0
      7362 MEMB     57       DPPC     H15R     HAL2     0.900000E-01   1.00800           0
      7363 MEMB     57       DPPC     H15S     HAL2     0.900000E-01   1.00800           0
      7364 MEMB     57       DPPC     C216     CTL3    -0.270000       12.0110           0
      7365 MEMB     57       DPPC     H16R     HAL3     0.900000E-01   1.00800           0
      7366 MEMB     57       DPPC     H16S     HAL3     0.900000E-01   1.00800           0
      7367 MEMB     57       DPPC     H16T     HAL3     0.900000E-01   1.00800           0
      7368 MEMB     57       DPPC     C33      CTL2    -0.180000       12.0110           0
      7369 MEMB     57       DPPC     H3X      HAL2     0.900000E-01   1.00800           0
      7370 MEMB     57       DPPC     H3Y      HAL2     0.900000E-01   1.00800           0
      7371 MEMB     57       DPPC     C34      CTL2    -0.180000       12.0110           0
      7372 MEMB     57       DPPC     H4X      HAL2     0.900000E-01   1.00800           0
      7373 MEMB     57       DPPC     H4Y      HAL2     0.900000E-01   1.00800           0
      7374 MEMB     57       DPPC     C35      CTL2    -0.180000       12.0110           0
      7375 MEMB     57       DPPC     H5X      HAL2     0.900000E-01   1.00800           0
      7376 MEMB     57       DPPC     H5Y      HAL2     0.900000E-01   1.00800           0
      7377 MEMB     57       DPPC     C36      CTL2    -0.180000       12.0110           0
      7378 MEMB     57       DPPC     H6X      HAL2     0.900000E-01   1.00800           0
      7379 MEMB     57       DPPC     H6Y      HAL2     0.900000E-01   1.00800           0
      7380 MEMB     57       DPPC     C37      CTL2    -0.180000       12.0110           0
      7381 MEMB     57       DPPC     H7X      HAL2     0.900000E-01   1.00800           0
      7382 MEMB     57       DPPC     H7Y      HAL2     0.900000E-01   1.00800           0
      7383 MEMB     57       DPPC     C38      CTL2    -0.180000       12.0110           0
      7384 MEMB     57       DPPC     H8X      HAL2     0.900000E-01   1.00800           0
      7385 MEMB     57       DPPC     H8Y      HAL2     0.900000E-01   1.00800           0
      7386 MEMB     57       DPPC     C39      CTL2    -0.180000       12.0110           0
      7387 MEMB     57       DPPC     H9X      HAL2     0.900000E-01   1.00800           0
      7388 MEMB     57       DPPC     H9Y      HAL2     0.900000E-01   1.00800           0
      7389 MEMB     57       DPPC     C310     CTL2    -0.180000       12.0110           0
      7390 MEMB     57       DPPC     H10X     HAL2     0.900000E-01   1.00800           0
      7391 MEMB     57       DPPC     H10Y     HAL2     0.900000E-01   1.00800           0
      7392 MEMB     57       DPPC     C311     CTL2    -0.180000       12.0110           0
      7393 MEMB     57       DPPC     H11X     HAL2     0.900000E-01   1.00800           0
      7394 MEMB     57       DPPC     H11Y     HAL2     0.900000E-01   1.00800           0
      7395 MEMB     57       DPPC     C312     CTL2    -0.180000       12.0110           0
      7396 MEMB     57       DPPC     H12X     HAL2     0.900000E-01   1.00800           0
      7397 MEMB     57       DPPC     H12Y     HAL2     0.900000E-01   1.00800           0
      7398 MEMB     57       DPPC     C313     CTL2    -0.180000       12.0110           0
      7399 MEMB     57       DPPC     H13X     HAL2     0.900000E-01   1.00800           0
      7400 MEMB     57       DPPC     H13Y     HAL2     0.900000E-01   1.00800           0
      7401 MEMB     57       DPPC     C314     CTL2    -0.180000       12.0110           0
      7402 MEMB     57       DPPC     H14X     HAL2     0.900000E-01   1.00800           0
      7403 MEMB     57       DPPC     H14Y     HAL2     0.900000E-01   1.00800           0
      7404 MEMB     57       DPPC     C315     CTL2    -0.180000       12.0110           0
      7405 MEMB     57       DPPC     H15X     HAL2     0.900000E-01   1.00800           0
      7406 MEMB     57       DPPC     H15Y     HAL2     0.900000E-01   1.00800           0
      7407 MEMB     57       DPPC     C316     CTL3    -0.270000       12.0110           0
      7408 MEMB     57       DPPC     H16X     HAL3     0.900000E-01   1.00800           0
      7409 MEMB     57       DPPC     H16Y     HAL3     0.900000E-01   1.00800           0
      7410 MEMB     57       DPPC     H16Z     HAL3     0.900000E-01   1.00800           0
      7411 MEMB     58       DPPC     N        NTL     -0.600000       14.0070           0
      7412 MEMB     58       DPPC     C13      CTL5    -0.350000       12.0110           0
      7413 MEMB     58       DPPC     H13A     HL       0.250000       1.00800           0
      7414 MEMB     58       DPPC     H13B     HL       0.250000       1.00800           0
      7415 MEMB     58       DPPC     H13C     HL       0.250000       1.00800           0
      7416 MEMB     58       DPPC     C14      CTL5    -0.350000       12.0110           0
      7417 MEMB     58       DPPC     H14A     HL       0.250000       1.00800           0
      7418 MEMB     58       DPPC     H14B     HL       0.250000       1.00800           0
      7419 MEMB     58       DPPC     H14C     HL       0.250000       1.00800           0
      7420 MEMB     58       DPPC     C15      CTL5    -0.350000       12.0110           0
      7421 MEMB     58       DPPC     H15A     HL       0.250000       1.00800           0
      7422 MEMB     58       DPPC     H15B     HL       0.250000       1.00800           0
      7423 MEMB     58       DPPC     H15C     HL       0.250000       1.00800           0
      7424 MEMB     58       DPPC     C12      CTL2    -0.100000       12.0110           0
      7425 MEMB     58       DPPC     H12A     HL       0.250000       1.00800           0
      7426 MEMB     58       DPPC     H12B     HL       0.250000       1.00800           0
      7427 MEMB     58       DPPC     C11      CTL2    -0.800000E-01   12.0110           0
      7428 MEMB     58       DPPC     H11A     HAL2     0.900000E-01   1.00800           0
      7429 MEMB     58       DPPC     H11B     HAL2     0.900000E-01   1.00800           0
      7430 MEMB     58       DPPC     P        PL       1.500000       30.9740           0
      7431 MEMB     58       DPPC     O13      O2L     -0.780000       15.9994           0
      7432 MEMB     58       DPPC     O14      O2L     -0.780000       15.9994           0
      7433 MEMB     58       DPPC     O11      OSLP    -0.570000       15.9994           0
      7434 MEMB     58       DPPC     O12      OSLP    -0.570000       15.9994           0
      7435 MEMB     58       DPPC     C1       CTL2    -0.800000E-01   12.0110           0
      7436 MEMB     58       DPPC     HA       HAL2     0.900000E-01   1.00800           0
      7437 MEMB     58       DPPC     HB       HAL2     0.900000E-01   1.00800           0
      7438 MEMB     58       DPPC     C2       CTL1     0.170000       12.0110           0
      7439 MEMB     58       DPPC     HS       HAL1     0.900000E-01   1.00800           0
      7440 MEMB     58       DPPC     O21      OSL     -0.490000       15.9994           0
      7441 MEMB     58       DPPC     C21      CL       0.900000       12.0110           0
      7442 MEMB     58       DPPC     O22      OBL     -0.630000       15.9994           0
      7443 MEMB     58       DPPC     C22      CTL2    -0.220000       12.0110           0
      7444 MEMB     58       DPPC     H2R      HAL2     0.900000E-01   1.00800           0
      7445 MEMB     58       DPPC     H2S      HAL2     0.900000E-01   1.00800           0
      7446 MEMB     58       DPPC     C3       CTL2     0.800000E-01   12.0110           0
      7447 MEMB     58       DPPC     HX       HAL2     0.900000E-01   1.00800           0
      7448 MEMB     58       DPPC     HY       HAL2     0.900000E-01   1.00800           0
      7449 MEMB     58       DPPC     O31      OSL     -0.490000       15.9994           0
      7450 MEMB     58       DPPC     C31      CL       0.900000       12.0110           0
      7451 MEMB     58       DPPC     O32      OBL     -0.630000       15.9994           0
      7452 MEMB     58       DPPC     C32      CTL2    -0.220000       12.0110           0
      7453 MEMB     58       DPPC     H2X      HAL2     0.900000E-01   1.00800           0
      7454 MEMB     58       DPPC     H2Y      HAL2     0.900000E-01   1.00800           0
      7455 MEMB     58       DPPC     C23      CTL2    -0.180000       12.0110           0
      7456 MEMB     58       DPPC     H3R      HAL2     0.900000E-01   1.00800           0
      7457 MEMB     58       DPPC     H3S      HAL2     0.900000E-01   1.00800           0
      7458 MEMB     58       DPPC     C24      CTL2    -0.180000       12.0110           0
      7459 MEMB     58       DPPC     H4R      HAL2     0.900000E-01   1.00800           0
      7460 MEMB     58       DPPC     H4S      HAL2     0.900000E-01   1.00800           0
      7461 MEMB     58       DPPC     C25      CTL2    -0.180000       12.0110           0
      7462 MEMB     58       DPPC     H5R      HAL2     0.900000E-01   1.00800           0
      7463 MEMB     58       DPPC     H5S      HAL2     0.900000E-01   1.00800           0
      7464 MEMB     58       DPPC     C26      CTL2    -0.180000       12.0110           0
      7465 MEMB     58       DPPC     H6R      HAL2     0.900000E-01   1.00800           0
      7466 MEMB     58       DPPC     H6S      HAL2     0.900000E-01   1.00800           0
      7467 MEMB     58       DPPC     C27      CTL2    -0.180000       12.0110           0
      7468 MEMB     58       DPPC     H7R      HAL2     0.900000E-01   1.00800           0
      7469 MEMB     58       DPPC     H7S      HAL2     0.900000E-01   1.00800           0
      7470 MEMB     58       DPPC     C28      CTL2    -0.180000       12.0110           0
      7471 MEMB     58       DPPC     H8R      HAL2     0.900000E-01   1.00800           0
      7472 MEMB     58       DPPC     H8S      HAL2     0.900000E-01   1.00800           0
      7473 MEMB     58       DPPC     C29      CTL2    -0.180000       12.0110           0
      7474 MEMB     58       DPPC     H9R      HAL2     0.900000E-01   1.00800           0
      7475 MEMB     58       DPPC     H9S      HAL2     0.900000E-01   1.00800           0
      7476 MEMB     58       DPPC     C210     CTL2    -0.180000       12.0110           0
      7477 MEMB     58       DPPC     H10R     HAL2     0.900000E-01   1.00800           0
      7478 MEMB     58       DPPC     H10S     HAL2     0.900000E-01   1.00800           0
      7479 MEMB     58       DPPC     C211     CTL2    -0.180000       12.0110           0
      7480 MEMB     58       DPPC     H11R     HAL2     0.900000E-01   1.00800           0
      7481 MEMB     58       DPPC     H11S     HAL2     0.900000E-01   1.00800           0
      7482 MEMB     58       DPPC     C212     CTL2    -0.180000       12.0110           0
      7483 MEMB     58       DPPC     H12R     HAL2     0.900000E-01   1.00800           0
      7484 MEMB     58       DPPC     H12S     HAL2     0.900000E-01   1.00800           0
      7485 MEMB     58       DPPC     C213     CTL2    -0.180000       12.0110           0
      7486 MEMB     58       DPPC     H13R     HAL2     0.900000E-01   1.00800           0
      7487 MEMB     58       DPPC     H13S     HAL2     0.900000E-01   1.00800           0
      7488 MEMB     58       DPPC     C214     CTL2    -0.180000       12.0110           0
      7489 MEMB     58       DPPC     H14R     HAL2     0.900000E-01   1.00800           0
      7490 MEMB     58       DPPC     H14S     HAL2     0.900000E-01   1.00800           0
      7491 MEMB     58       DPPC     C215     CTL2    -0.180000       12.0110           0
      7492 MEMB     58       DPPC     H15R     HAL2     0.900000E-01   1.00800           0
      7493 MEMB     58       DPPC     H15S     HAL2     0.900000E-01   1.00800           0
      7494 MEMB     58       DPPC     C216     CTL3    -0.270000       12.0110           0
      7495 MEMB     58       DPPC     H16R     HAL3     0.900000E-01   1.00800           0
      7496 MEMB     58       DPPC     H16S     HAL3     0.900000E-01   1.00800           0
      7497 MEMB     58       DPPC     H16T     HAL3     0.900000E-01   1.00800           0
      7498 MEMB     58       DPPC     C33      CTL2    -0.180000       12.0110           0
      7499 MEMB     58       DPPC     H3X      HAL2     0.900000E-01   1.00800           0
      7500 MEMB     58       DPPC     H3Y      HAL2     0.900000E-01   1.00800           0
      7501 MEMB     58       DPPC     C34      CTL2    -0.180000       12.0110           0
      7502 MEMB     58       DPPC     H4X      HAL2     0.900000E-01   1.00800           0
      7503 MEMB     58       DPPC     H4Y      HAL2     0.900000E-01   1.00800           0
      7504 MEMB     58       DPPC     C35      CTL2    -0.180000       12.0110           0
      7505 MEMB     58       DPPC     H5X      HAL2     0.900000E-01   1.00800           0
      7506 MEMB     58       DPPC     H5Y      HAL2     0.900000E-01   1.00800           0
      7507 MEMB     58       DPPC     C36      CTL2    -0.180000       12.0110           0
      7508 MEMB     58       DPPC     H6X      HAL2     0.900000E-01   1.00800           0
      7509 MEMB     58       DPPC     H6Y      HAL2     0.900000E-01   1.00800           0
      7510 MEMB     58       DPPC     C37      CTL2    -0.180000       12.0110           0
      7511 MEMB     58       DPPC     H7X      HAL2     0.900000E-01   1.00800           0
      7512 MEMB     58       DPPC     H7Y      HAL2     0.900000E-01   1.00800           0
      7513 MEMB     58       DPPC     C38      CTL2    -0.180000       12.0110           0
      7514 MEMB     58       DPPC     H8X      HAL2     0.900000E-01   1.00800           0
      7515 MEMB     58       DPPC     H8Y      HAL2     0.900000E-01   1.00800           0
      7516 MEMB     58       DPPC     C39      CTL2    -0.180000       12.0110           0
      7517 MEMB     58       DPPC     H9X      HAL2     0.900000E-01   1.00800           0
      7518 MEMB     58       DPPC     H9Y      HAL2     0.900000E-01   1.00800           0
      7519 MEMB     58       DPPC     C310     CTL2    -0.180000       12.0110           0
      7520 MEMB     58       DPPC     H10X     HAL2     0.900000E-01   1.00800           0
      7521 MEMB     58       DPPC     H10Y     HAL2     0.900000E-01   1.00800           0
      7522 MEMB     58       DPPC     C311     CTL2    -0.180000       12.0110           0
      7523 MEMB     58       DPPC     H11X     HAL2     0.900000E-01   1.00800           0
      7524 MEMB     58       DPPC     H11Y     HAL2     0.900000E-01   1.00800           0
      7525 MEMB     58       DPPC     C312     CTL2    -0.180000       12.0110           0
      7526 MEMB     58       DPPC     H12X     HAL2     0.900000E-01   1.00800           0
      7527 MEMB     58       DPPC     H12Y     HAL2     0.900000E-01   1.00800           0
      7528 MEMB     58       DPPC     C313     CTL2    -0.180000       12.0110           0
      7529 MEMB     58       DPPC     H13X     HAL2     0.900000E-01   1.00800           0
      7530 MEMB     58       DPPC     H13Y     HAL2     0.900000E-01   1.00800           0
      7531 MEMB     58       DPPC     C314     CTL2    -0.180000       12.0110           0
      7532 MEMB     58       DPPC     H14X     HAL2     0.900000E-01   1.00800           0
      7533 MEMB     58       DPPC     H14Y     HAL2     0.900000E-01   1.00800           0
      7534 MEMB     58       DPPC     C315     CTL2    -0.180000       12.0110           0
      7535 MEMB     58       DPPC     H15X     HAL2     0.900000E-01   1.00800           0
      7536 MEMB     58       DPPC     H15Y     HAL2     0.900000E-01   1.00800           0
      7537 MEMB     58       DPPC     C316     CTL3    -0.270000       12.0110           0
      7538 MEMB     58       DPPC     H16X     HAL3     0.900000E-01   1.00800           0
      7539 MEMB     58       DPPC     H16Y     HAL3     0.900000E-01   1.00800           0
      7540 MEMB     58       DPPC     H16Z     HAL3     0.900000E-01   1.00800           0
      7541 MEMB     59       DPPC     N        NTL     -0.600000       14.0070           0
      7542 MEMB     59       DPPC     C13      CTL5    -0.350000       12.0110           0
      7543 MEMB     59       DPPC     H13A     HL       0.250000       1.00800           0
      7544 MEMB     59       DPPC     H13B     HL       0.250000       1.00800           0
      7545 MEMB     59       DPPC     H13C     HL       0.250000       1.00800           0
      7546 MEMB     59       DPPC     C14      CTL5    -0.350000       12.0110           0
      7547 MEMB     59       DPPC     H14A     HL       0.250000       1.00800           0
      7548 MEMB     59       DPPC     H14B     HL       0.250000       1.00800           0
      7549 MEMB     59       DPPC     H14C     HL       0.250000       1.00800           0
      7550 MEMB     59       DPPC     C15      CTL5    -0.350000       12.0110           0
      7551 MEMB     59       DPPC     H15A     HL       0.250000       1.00800           0
      7552 MEMB     59       DPPC     H15B     HL       0.250000       1.00800           0
      7553 MEMB     59       DPPC     H15C     HL       0.250000       1.00800           0
      7554 MEMB     59       DPPC     C12      CTL2    -0.100000       12.0110           0
      7555 MEMB     59       DPPC     H12A     HL       0.250000       1.00800           0
      7556 MEMB     59       DPPC     H12B     HL       0.250000       1.00800           0
      7557 MEMB     59       DPPC     C11      CTL2    -0.800000E-01   12.0110           0
      7558 MEMB     59       DPPC     H11A     HAL2     0.900000E-01   1.00800           0
      7559 MEMB     59       DPPC     H11B     HAL2     0.900000E-01   1.00800           0
      7560 MEMB     59       DPPC     P        PL       1.500000       30.9740           0
      7561 MEMB     59       DPPC     O13      O2L     -0.780000       15.9994           0
      7562 MEMB     59       DPPC     O14      O2L     -0.780000       15.9994           0
      7563 MEMB     59       DPPC     O11      OSLP    -0.570000       15.9994           0
      7564 MEMB     59       DPPC     O12      OSLP    -0.570000       15.9994           0
      7565 MEMB     59       DPPC     C1       CTL2    -0.800000E-01   12.0110           0
      7566 MEMB     59       DPPC     HA       HAL2     0.900000E-01   1.00800           0
      7567 MEMB     59       DPPC     HB       HAL2     0.900000E-01   1.00800           0
      7568 MEMB     59       DPPC     C2       CTL1     0.170000       12.0110           0
      7569 MEMB     59       DPPC     HS       HAL1     0.900000E-01   1.00800           0
      7570 MEMB     59       DPPC     O21      OSL     -0.490000       15.9994           0
      7571 MEMB     59       DPPC     C21      CL       0.900000       12.0110           0
      7572 MEMB     59       DPPC     O22      OBL     -0.630000       15.9994           0
      7573 MEMB     59       DPPC     C22      CTL2    -0.220000       12.0110           0
      7574 MEMB     59       DPPC     H2R      HAL2     0.900000E-01   1.00800           0
      7575 MEMB     59       DPPC     H2S      HAL2     0.900000E-01   1.00800           0
      7576 MEMB     59       DPPC     C3       CTL2     0.800000E-01   12.0110           0
      7577 MEMB     59       DPPC     HX       HAL2     0.900000E-01   1.00800           0
      7578 MEMB     59       DPPC     HY       HAL2     0.900000E-01   1.00800           0
      7579 MEMB     59       DPPC     O31      OSL     -0.490000       15.9994           0
      7580 MEMB     59       DPPC     C31      CL       0.900000       12.0110           0
      7581 MEMB     59       DPPC     O32      OBL     -0.630000       15.9994           0
      7582 MEMB     59       DPPC     C32      CTL2    -0.220000       12.0110           0
      7583 MEMB     59       DPPC     H2X      HAL2     0.900000E-01   1.00800           0
      7584 MEMB     59       DPPC     H2Y      HAL2     0.900000E-01   1.00800           0
      7585 MEMB     59       DPPC     C23      CTL2    -0.180000       12.0110           0
      7586 MEMB     59       DPPC     H3R      HAL2     0.900000E-01   1.00800           0
      7587 MEMB     59       DPPC     H3S      HAL2     0.900000E-01   1.00800           0
      7588 MEMB     59       DPPC     C24      CTL2    -0.180000       12.0110           0
      7589 MEMB     59       DPPC     H4R      HAL2     0.900000E-01   1.00800           0
      7590 MEMB     59       DPPC     H4S      HAL2     0.900000E-01   1.00800           0
      7591 MEMB     59       DPPC     C25      CTL2    -0.180000       12.0110           0
      7592 MEMB     59       DPPC     H5R      HAL2     0.900000E-01   1.00800           0
      7593 MEMB     59       DPPC     H5S      HAL2     0.900000E-01   1.00800           0
      7594 MEMB     59       DPPC     C26      CTL2    -0.180000       12.0110           0
      7595 MEMB     59       DPPC     H6R      HAL2     0.900000E-01   1.00800           0
      7596 MEMB     59       DPPC     H6S      HAL2     0.900000E-01   1.00800           0
      7597 MEMB     59       DPPC     C27      CTL2    -0.180000       12.0110           0
      7598 MEMB     59       DPPC     H7R      HAL2     0.900000E-01   1.00800           0
      7599 MEMB     59       DPPC     H7S      HAL2     0.900000E-01   1.00800           0
      7600 MEMB     59       DPPC     C28      CTL2    -0.180000       12.0110           0
      7601 MEMB     59       DPPC     H8R      HAL2     0.900000E-01   1.00800           0
      7602 MEMB     59       DPPC     H8S      HAL2     0.900000E-01   1.00800           0
      7603 MEMB     59       DPPC     C29      CTL2    -0.180000       12.0110           0
      7604 MEMB     59       DPPC     H9R      HAL2     0.900000E-01   1.00800           0
      7605 MEMB     59       DPPC     H9S      HAL2     0.900000E-01   1.00800           0
      7606 MEMB     59       DPPC     C210     CTL2    -0.180000       12.0110           0
      7607 MEMB     59       DPPC     H10R     HAL2     0.900000E-01   1.00800           0
      7608 MEMB     59       DPPC     H10S     HAL2     0.900000E-01   1.00800           0
      7609 MEMB     59       DPPC     C211     CTL2    -0.180000       12.0110           0
      7610 MEMB     59       DPPC     H11R     HAL2     0.900000E-01   1.00800           0
      7611 MEMB     59       DPPC     H11S     HAL2     0.900000E-01   1.00800           0
      7612 MEMB     59       DPPC     C212     CTL2    -0.180000       12.0110           0
      7613 MEMB     59       DPPC     H12R     HAL2     0.900000E-01   1.00800           0
      7614 MEMB     59       DPPC     H12S     HAL2     0.900000E-01   1.00800           0
      7615 MEMB     59       DPPC     C213     CTL2    -0.180000       12.0110           0
      7616 MEMB     59       DPPC     H13R     HAL2     0.900000E-01   1.00800           0
      7617 MEMB     59       DPPC     H13S     HAL2     0.900000E-01   1.00800           0
      7618 MEMB     59       DPPC     C214     CTL2    -0.180000       12.0110           0
      7619 MEMB     59       DPPC     H14R     HAL2     0.900000E-01   1.00800           0
      7620 MEMB     59       DPPC     H14S     HAL2     0.900000E-01   1.00800           0
      7621 MEMB     59       DPPC     C215     CTL2    -0.180000       12.0110           0
      7622 MEMB     59       DPPC     H15R     HAL2     0.900000E-01   1.00800           0
      7623 MEMB     59       DPPC     H15S     HAL2     0.900000E-01   1.00800           0
      7624 MEMB     59       DPPC     C216     CTL3    -0.270000       12.0110           0
      7625 MEMB     59       DPPC     H16R     HAL3     0.900000E-01   1.00800           0
      7626 MEMB     59       DPPC     H16S     HAL3     0.900000E-01   1.00800           0
      7627 MEMB     59       DPPC     H16T     HAL3     0.900000E-01   1.00800           0
      7628 MEMB     59       DPPC     C33      CTL2    -0.180000       12.0110           0
      7629 MEMB     59       DPPC     H3X      HAL2     0.900000E-01   1.00800           0
      7630 MEMB     59       DPPC     H3Y      HAL2     0.900000E-01   1.00800           0
      7631 MEMB     59       DPPC     C34      CTL2    -0.180000       12.0110           0
      7632 MEMB     59       DPPC     H4X      HAL2     0.900000E-01   1.00800           0
      7633 MEMB     59       DPPC     H4Y      HAL2     0.900000E-01   1.00800           0
      7634 MEMB     59       DPPC     C35      CTL2    -0.180000       12.0110           0
      7635 MEMB     59       DPPC     H5X      HAL2     0.900000E-01   1.00800           0
      7636 MEMB     59       DPPC     H5Y      HAL2     0.900000E-01   1.00800           0
      7637 MEMB     59       DPPC     C36      CTL2    -0.180000       12.0110           0
      7638 MEMB     59       DPPC     H6X      HAL2     0.900000E-01   1.00800           0
      7639 MEMB     59       DPPC     H6Y      HAL2     0.900000E-01   1.00800           0
      7640 MEMB     59       DPPC     C37      CTL2    -0.180000       12.0110           0
      7641 MEMB     59       DPPC     H7X      HAL2     0.900000E-01   1.00800           0
      7642 MEMB     59       DPPC     H7Y      HAL2     0.900000E-01   1.00800           0
      7643 MEMB     59       DPPC     C38      CTL2    -0.180000       12.0110           0
      7644 MEMB     59       DPPC     H8X      HAL2     0.900000E-01   1.00800           0
      7645 MEMB     59       DPPC     H8Y      HAL2     0.900000E-01   1.00800           0
      7646 MEMB     59       DPPC     C39      CTL2    -0.180000       12.0110           0
      7647 MEMB     59       DPPC     H9X      HAL2     0.900000E-01   1.00800           0
      7648 MEMB     59       DPPC     H9Y      HAL2     0.900000E-01   1.00800           0
      7649 MEMB     59       DPPC     C310     CTL2    -0.180000       12.0110           0
      7650 MEMB     59       DPPC     H10X     HAL2     0.900000E-01   1.00800           0
      7651 MEMB     59       DPPC     H10Y     HAL2     0.900000E-01   1.00800           0
      7652 MEMB     59       DPPC     C311     CTL2    -0.180000       12.0110           0
      7653 MEMB     59       DPPC     H11X     HAL2     0.900000E-01   1.00800           0
      7654 MEMB     59       DPPC     H11Y     HAL2     0.900000E-01   1.00800           0
      7655 MEMB     59       DPPC     C312     CTL2    -0.180000       12.0110           0
      7656 MEMB     59       DPPC     H12X     HAL2     0.900000E-01   1.00800           0
      7657 MEMB     59       DPPC     H12Y     HAL2     0.900000E-01   1.00800           0
      7658 MEMB     59       DPPC     C313     CTL2    -0.180000       12.0110           0
      7659 MEMB     59       DPPC     H13X     HAL2     0.900000E-01   1.00800           0
      7660 MEMB     59       DPPC     H13Y     HAL2     0.900000E-01   1.00800           0
      7661 MEMB     59       DPPC     C314     CTL2    -0.180000       12.0110           0
      7662 MEMB     59       DPPC     H14X     HAL2     0.900000E-01   1.00800           0
      7663 MEMB     59       DPPC     H14Y     HAL2     0.900000E-01   1.00800           0
      7664 MEMB     59       DPPC     C315     CTL2    -0.180000       12.0110           0
      7665 MEMB     59       DPPC     H15X     HAL2     0.900000E-01   1.00800           0
      7666 MEMB     59       DPPC     H15Y     HAL2     0.900000E-01   1.00800           0
      7667 MEMB     59       DPPC     C316     CTL3    -0.270000       12.0110           0
      7668 MEMB     59       DPPC     H16X     HAL3     0.900000E-01   1.00800           0
      7669 MEMB     59       DPPC     H16Y     HAL3     0.900000E-01   1.00800           0
      7670 MEMB     59       DPPC     H16Z     HAL3     0.900000E-01   1.00800           0
      7671 MEMB     60       DPPC     N        NTL     -0.600000       14.0070           0
      7672 MEMB     60       DPPC     C13      CTL5    -0.350000       12.0110           0
      7673 MEMB     60       DPPC     H13A     HL       0.250000       1.00800           0
      7674 MEMB     60       DPPC     H13B     HL       0.250000       1.00800           0
      7675 MEMB     60       DPPC     H13C     HL       0.250000       1.00800           0
      7676 MEMB     60       DPPC     C14      CTL5    -0.350000       12.0110           0
      7677 MEMB     60       DPPC     H14A     HL       0.250000       1.00800           0
      7678 MEMB     60       DPPC     H14B     HL       0.250000       1.00800           0
      7679 MEMB     60       DPPC     H14C     HL       0.250000       1.00800           0
      7680 MEMB     60       DPPC     C15      CTL5    -0.350000       12.0110           0
      7681 MEMB     60       DPPC     H15A     HL       0.250000       1.00800           0
      7682 MEMB     60       DPPC     H15B     HL       0.250000       1.00800           0
      7683 MEMB     60       DPPC     H15C     HL       0.250000       1.00800           0
      7684 MEMB     60       DPPC     C12      CTL2    -0.100000       12.0110           0
      7685 MEMB     60       DPPC     H12A     HL       0.250000       1.00800           0
      7686 MEMB     60       DPPC     H12B     HL       0.250000       1.00800           0
      7687 MEMB     60       DPPC     C11      CTL2    -0.800000E-01   12.0110           0
      7688 MEMB     60       DPPC     H11A     HAL2     0.900000E-01   1.00800           0
      7689 MEMB     60       DPPC     H11B     HAL2     0.900000E-01   1.00800           0
      7690 MEMB     60       DPPC     P        PL       1.500000       30.9740           0
      7691 MEMB     60       DPPC     O13      O2L     -0.780000       15.9994           0
      7692 MEMB     60       DPPC     O14      O2L     -0.780000       15.9994           0
      7693 MEMB     60       DPPC     O11      OSLP    -0.570000       15.9994           0
      7694 MEMB     60       DPPC     O12      OSLP    -0.570000       15.9994           0
      7695 MEMB     60       DPPC     C1       CTL2    -0.800000E-01   12.0110           0
      7696 MEMB     60       DPPC     HA       HAL2     0.900000E-01   1.00800           0
      7697 MEMB     60       DPPC     HB       HAL2     0.900000E-01   1.00800           0
      7698 MEMB     60       DPPC     C2       CTL1     0.170000       12.0110           0
      7699 MEMB     60       DPPC     HS       HAL1     0.900000E-01   1.00800           0
      7700 MEMB     60       DPPC     O21      OSL     -0.490000       15.9994           0
      7701 MEMB     60       DPPC     C21      CL       0.900000       12.0110           0
      7702 MEMB     60       DPPC     O22      OBL     -0.630000       15.9994           0
      7703 MEMB     60       DPPC     C22      CTL2    -0.220000       12.0110           0
      7704 MEMB     60       DPPC     H2R      HAL2     0.900000E-01   1.00800           0
      7705 MEMB     60       DPPC     H2S      HAL2     0.900000E-01   1.00800           0
      7706 MEMB     60       DPPC     C3       CTL2     0.800000E-01   12.0110           0
      7707 MEMB     60       DPPC     HX       HAL2     0.900000E-01   1.00800           0
      7708 MEMB     60       DPPC     HY       HAL2     0.900000E-01   1.00800           0
      7709 MEMB     60       DPPC     O31      OSL     -0.490000       15.9994           0
      7710 MEMB     60       DPPC     C31      CL       0.900000       12.0110           0
      7711 MEMB     60       DPPC     O32      OBL     -0.630000       15.9994           0
      7712 MEMB     60       DPPC     C32      CTL2    -0.220000       12.0110           0
      7713 MEMB     60       DPPC     H2X      HAL2     0.900000E-01   1.00800           0
      7714 MEMB     60       DPPC     H2Y      HAL2     0.900000E-01   1.00800           0
      7715 MEMB     60       DPPC     C23      CTL2    -0.180000       12.0110           0
      7716 MEMB     60       DPPC     H3R      HAL2     0.900000E-01   1.00800           0
      7717 MEMB     60       DPPC     H3S      HAL2     0.900000E-01   1.00800           0
      7718 MEMB     60       DPPC     C24      CTL2    -0.180000       12.0110           0
      7719 MEMB     60       DPPC     H4R      HAL2     0.900000E-01   1.00800           0
      7720 MEMB     60       DPPC     H4S      HAL2     0.900000E-01   1.00800           0
      7721 MEMB     60       DPPC     C25      CTL2    -0.180000       12.0110           0
      7722 MEMB     60       DPPC     H5R      HAL2     0.900000E-01   1.00800           0
      7723 MEMB     60       DPPC     H5S      HAL2     0.900000E-01   1.00800           0
      7724 MEMB     60       DPPC     C26      CTL2    -0.180000       12.0110           0
      7725 MEMB     60       DPPC     H6R      HAL2     0.900000E-01   1.00800           0
      7726 MEMB     60       DPPC     H6S      HAL2     0.900000E-01   1.00800           0
      7727 MEMB     60       DPPC     C27      CTL2    -0.180000       12.0110           0
      7728 MEMB     60       DPPC     H7R      HAL2     0.900000E-01   1.00800           0
      7729 MEMB     60       DPPC     H7S      HAL2     0.900000E-01   1.00800           0
      7730 MEMB     60       DPPC     C28      CTL2    -0.180000       12.0110           0
      7731 MEMB     60       DPPC     H8R      HAL2     0.900000E-01   1.00800           0
      7732 MEMB     60       DPPC     H8S      HAL2     0.900000E-01   1.00800           0
      7733 MEMB     60       DPPC     C29      CTL2    -0.180000       12.0110           0
      7734 MEMB     60       DPPC     H9R      HAL2     0.900000E-01   1.00800           0
      7735 MEMB     60       DPPC     H9S      HAL2     0.900000E-01   1.00800           0
      7736 MEMB     60       DPPC     C210     CTL2    -0.180000       12.0110           0
      7737 MEMB     60       DPPC     H10R     HAL2     0.900000E-01   1.00800           0
      7738 MEMB     60       DPPC     H10S     HAL2     0.900000E-01   1.00800           0
      7739 MEMB     60       DPPC     C211     CTL2    -0.180000       12.0110           0
      7740 MEMB     60       DPPC     H11R     HAL2     0.900000E-01   1.00800           0
      7741 MEMB     60       DPPC     H11S     HAL2     0.900000E-01   1.00800           0
      7742 MEMB     60       DPPC     C212     CTL2    -0.180000       12.0110           0
      7743 MEMB     60       DPPC     H12R     HAL2     0.900000E-01   1.00800           0
      7744 MEMB     60       DPPC     H12S     HAL2     0.900000E-01   1.00800           0
      7745 MEMB     60       DPPC     C213     CTL2    -0.180000       12.0110           0
      7746 MEMB     60       DPPC     H13R     HAL2     0.900000E-01   1.00800           0
      7747 MEMB     60       DPPC     H13S     HAL2     0.900000E-01   1.00800           0
      7748 MEMB     60       DPPC     C214     CTL2    -0.180000       12.0110           0
      7749 MEMB     60       DPPC     H14R     HAL2     0.900000E-01   1.00800           0
      7750 MEMB     60       DPPC     H14S     HAL2     0.900000E-01   1.00800           0
      7751 MEMB     60       DPPC     C215     CTL2    -0.180000       12.0110           0
      7752 MEMB     60       DPPC     H15R     HAL2     0.900000E-01   1.00800           0
      7753 MEMB     60       DPPC     H15S     HAL2     0.900000E-01   1.00800           0
      7754 MEMB     60       DPPC     C216     CTL3    -0.270000       12.0110           0
      7755 MEMB     60       DPPC     H16R     HAL3     0.900000E-01   1.00800           0
      7756 MEMB     60       DPPC     H16S     HAL3     0.900000E-01   1.00800           0
      7757 MEMB     60       DPPC     H16T     HAL3     0.900000E-01   1.00800           0
      7758 MEMB     60       DPPC     C33      CTL2    -0.180000       12.0110           0
      7759 MEMB     60       DPPC     H3X      HAL2     0.900000E-01   1.00800           0
      7760 MEMB     60       DPPC     H3Y      HAL2     0.900000E-01   1.00800           0
      7761 MEMB     60       DPPC     C34      CTL2    -0.180000       12.0110           0
      7762 MEMB     60       DPPC     H4X      HAL2     0.900000E-01   1.00800           0
      7763 MEMB     60       DPPC     H4Y      HAL2     0.900000E-01   1.00800           0
      7764 MEMB     60       DPPC     C35      CTL2    -0.180000       12.0110           0
      7765 MEMB     60       DPPC     H5X      HAL2     0.900000E-01   1.00800           0
      7766 MEMB     60       DPPC     H5Y      HAL2     0.900000E-01   1.00800           0
      7767 MEMB     60       DPPC     C36      CTL2    -0.180000       12.0110           0
      7768 MEMB     60       DPPC     H6X      HAL2     0.900000E-01   1.00800           0
      7769 MEMB     60       DPPC     H6Y      HAL2     0.900000E-01   1.00800           0
      7770 MEMB     60       DPPC     C37      CTL2    -0.180000       12.0110           0
      7771 MEMB     60       DPPC     H7X      HAL2     0.900000E-01   1.00800           0
      7772 MEMB     60       DPPC     H7Y      HAL2     0.900000E-01   1.00800           0
      7773 MEMB     60       DPPC     C38      CTL2    -0.180000       12.0110           0
      7774 MEMB     60       DPPC     H8X      HAL2     0.900000E-01   1.00800           0
      7775 MEMB     60       DPPC     H8Y      HAL2     0.900000E-01   1.00800           0
      7776 MEMB     60       DPPC     C39      CTL2    -0.180000       12.0110           0
      7777 MEMB     60       DPPC     H9X      HAL2     0.900000E-01   1.00800           0
      7778 MEMB     60       DPPC     H9Y      HAL2     0.900000E-01   1.00800           0
      7779 MEMB     60       DPPC     C310     CTL2    -0.180000       12.0110           0
      7780 MEMB     60       DPPC     H10X     HAL2     0.900000E-01   1.00800           0
      7781 MEMB     60       DPPC     H10Y     HAL2     0.900000E-01   1.00800           0
      7782 MEMB     60       DPPC     C311     CTL2    -0.180000       12.0110           0
      7783 MEMB     60       DPPC     H11X     HAL2     0.900000E-01   1.00800           0
      7784 MEMB     60       DPPC     H11Y     HAL2     0.900000E-01   1.00800           0
      7785 MEMB     60       DPPC     C312     CTL2    -0.180000       12.0110           0
      7786 MEMB     60       DPPC     H12X     HAL2     0.900000E-01   1.00800           0
      7787 MEMB     60       DPPC     H12Y     HAL2     0.900000E-01   1.00800           0
      7788 MEMB     60       DPPC     C313     CTL2    -0.180000       12.0110           0
      7789 MEMB     60       DPPC     H13X     HAL2     0.900000E-01   1.00800           0
      7790 MEMB     60       DPPC     H13Y     HAL2     0.900000E-01   1.00800           0
      7791 MEMB     60       DPPC     C314     CTL2    -0.180000       12.0110           0
      7792 MEMB     60       DPPC     H14X     HAL2     0.900000E-01   1.00800           0
      7793 MEMB     60       DPPC     H14Y     HAL2     0.900000E-01   1.00800           0
      7794 MEMB     60       DPPC     C315     CTL2    -0.180000       12.0110           0
      7795 MEMB     60       DPPC     H15X     HAL2     0.900000E-01   1.00800           0
      7796 MEMB     60       DPPC     H15Y     HAL2     0.900000E-01   1.00800           0
      7797 MEMB     60       DPPC     C316     CTL3    -0.270000       12.0110           0
      7798 MEMB     60       DPPC     H16X     HAL3     0.900000E-01   1.00800           0
      7799 MEMB     60       DPPC     H16Y     HAL3     0.900000E-01   1.00800           0
      7800 MEMB     60       DPPC     H16Z     HAL3     0.900000E-01   1.00800           0
      7801 MEMB     61       DPPC     N        NTL     -0.600000       14.0070           0
      7802 MEMB     61       DPPC     C13      CTL5    -0.350000       12.0110           0
      7803 MEMB     61       DPPC     H13A     HL       0.250000       1.00800           0
      7804 MEMB     61       DPPC     H13B     HL       0.250000       1.00800           0
      7805 MEMB     61       DPPC     H13C     HL       0.250000       1.00800           0
      7806 MEMB     61       DPPC     C14      CTL5    -0.350000       12.0110           0
      7807 MEMB     61       DPPC     H14A     HL       0.250000       1.00800           0
      7808 MEMB     61       DPPC     H14B     HL       0.250000       1.00800           0
      7809 MEMB     61       DPPC     H14C     HL       0.250000       1.00800           0
      7810 MEMB     61       DPPC     C15      CTL5    -0.350000       12.0110           0
      7811 MEMB     61       DPPC     H15A     HL       0.250000       1.00800           0
      7812 MEMB     61       DPPC     H15B     HL       0.250000       1.00800           0
      7813 MEMB     61       DPPC     H15C     HL       0.250000       1.00800           0
      7814 MEMB     61       DPPC     C12      CTL2    -0.100000       12.0110           0
      7815 MEMB     61       DPPC     H12A     HL       0.250000       1.00800           0
      7816 MEMB     61       DPPC     H12B     HL       0.250000       1.00800           0
      7817 MEMB     61       DPPC     C11      CTL2    -0.800000E-01   12.0110           0
      7818 MEMB     61       DPPC     H11A     HAL2     0.900000E-01   1.00800           0
      7819 MEMB     61       DPPC     H11B     HAL2     0.900000E-01   1.00800           0
      7820 MEMB     61       DPPC     P        PL       1.500000       30.9740           0
      7821 MEMB     61       DPPC     O13      O2L     -0.780000       15.9994           0
      7822 MEMB     61       DPPC     O14      O2L     -0.780000       15.9994           0
      7823 MEMB     61       DPPC     O11      OSLP    -0.570000       15.9994           0
      7824 MEMB     61       DPPC     O12      OSLP    -0.570000       15.9994           0
      7825 MEMB     61       DPPC     C1       CTL2    -0.800000E-01   12.0110           0
      7826 MEMB     61       DPPC     HA       HAL2     0.900000E-01   1.00800           0
      7827 MEMB     61       DPPC     HB       HAL2     0.900000E-01   1.00800           0
      7828 MEMB     61       DPPC     C2       CTL1     0.170000       12.0110           0
      7829 MEMB     61       DPPC     HS       HAL1     0.900000E-01   1.00800           0
      7830 MEMB     61       DPPC     O21      OSL     -0.490000       15.9994           0
      7831 MEMB     61       DPPC     C21      CL       0.900000       12.0110           0
      7832 MEMB     61       DPPC     O22      OBL     -0.630000       15.9994           0
      7833 MEMB     61       DPPC     C22      CTL2    -0.220000       12.0110           0
      7834 MEMB     61       DPPC     H2R      HAL2     0.900000E-01   1.00800           0
      7835 MEMB     61       DPPC     H2S      HAL2     0.900000E-01   1.00800           0
      7836 MEMB     61       DPPC     C3       CTL2     0.800000E-01   12.0110           0
      7837 MEMB     61       DPPC     HX       HAL2     0.900000E-01   1.00800           0
      7838 MEMB     61       DPPC     HY       HAL2     0.900000E-01   1.00800           0
      7839 MEMB     61       DPPC     O31      OSL     -0.490000       15.9994           0
      7840 MEMB     61       DPPC     C31      CL       0.900000       12.0110           0
      7841 MEMB     61       DPPC     O32      OBL     -0.630000       15.9994           0
      7842 MEMB     61       DPPC     C32      CTL2    -0.220000       12.0110           0
      7843 MEMB     61       DPPC     H2X      HAL2     0.900000E-01   1.00800           0
      7844 MEMB     61       DPPC     H2Y      HAL2     0.900000E-01   1.00800           0
      7845 MEMB     61       DPPC     C23      CTL2    -0.180000       12.0110           0
      7846 MEMB     61       DPPC     H3R      HAL2     0.900000E-01   1.00800           0
      7847 MEMB     61       DPPC     H3S      HAL2     0.900000E-01   1.00800           0
      7848 MEMB     61       DPPC     C24      CTL2    -0.180000       12.0110           0
      7849 MEMB     61       DPPC     H4R      HAL2     0.900000E-01   1.00800           0
      7850 MEMB     61       DPPC     H4S      HAL2     0.900000E-01   1.00800           0
      7851 MEMB     61       DPPC     C25      CTL2    -0.180000       12.0110           0
      7852 MEMB     61       DPPC     H5R      HAL2     0.900000E-01   1.00800           0
      7853 MEMB     61       DPPC     H5S      HAL2     0.900000E-01   1.00800           0
      7854 MEMB     61       DPPC     C26      CTL2    -0.180000       12.0110           0
      7855 MEMB     61       DPPC     H6R      HAL2     0.900000E-01   1.00800           0
      7856 MEMB     61       DPPC     H6S      HAL2     0.900000E-01   1.00800           0
      7857 MEMB     61       DPPC     C27      CTL2    -0.180000       12.0110           0
      7858 MEMB     61       DPPC     H7R      HAL2     0.900000E-01   1.00800           0
      7859 MEMB     61       DPPC     H7S      HAL2     0.900000E-01   1.00800           0
      7860 MEMB     61       DPPC     C28      CTL2    -0.180000       12.0110           0
      7861 MEMB     61       DPPC     H8R      HAL2     0.900000E-01   1.00800           0
      7862 MEMB     61       DPPC     H8S      HAL2     0.900000E-01   1.00800           0
      7863 MEMB     61       DPPC     C29      CTL2    -0.180000       12.0110           0
      7864 MEMB     61       DPPC     H9R      HAL2     0.900000E-01   1.00800           0
      7865 MEMB     61       DPPC     H9S      HAL2     0.900000E-01   1.00800           0
      7866 MEMB     61       DPPC     C210     CTL2    -0.180000       12.0110           0
      7867 MEMB     61       DPPC     H10R     HAL2     0.900000E-01   1.00800           0
      7868 MEMB     61       DPPC     H10S     HAL2     0.900000E-01   1.00800           0
      7869 MEMB     61       DPPC     C211     CTL2    -0.180000       12.0110           0
      7870 MEMB     61       DPPC     H11R     HAL2     0.900000E-01   1.00800           0
      7871 MEMB     61       DPPC     H11S     HAL2     0.900000E-01   1.00800           0
      7872 MEMB     61       DPPC     C212     CTL2    -0.180000       12.0110           0
      7873 MEMB     61       DPPC     H12R     HAL2     0.900000E-01   1.00800           0
      7874 MEMB     61       DPPC     H12S     HAL2     0.900000E-01   1.00800           0
      7875 MEMB     61       DPPC     C213     CTL2    -0.180000       12.0110           0
      7876 MEMB     61       DPPC     H13R     HAL2     0.900000E-01   1.00800           0
      7877 MEMB     61       DPPC     H13S     HAL2     0.900000E-01   1.00800           0
      7878 MEMB     61       DPPC     C214     CTL2    -0.180000       12.0110           0
      7879 MEMB     61       DPPC     H14R     HAL2     0.900000E-01   1.00800           0
      7880 MEMB     61       DPPC     H14S     HAL2     0.900000E-01   1.00800           0
      7881 MEMB     61       DPPC     C215     CTL2    -0.180000       12.0110           0
      7882 MEMB     61       DPPC     H15R     HAL2     0.900000E-01   1.00800           0
      7883 MEMB     61       DPPC     H15S     HAL2     0.900000E-01   1.00800           0
      7884 MEMB     61       DPPC     C216     CTL3    -0.270000       12.0110           0
      7885 MEMB     61       DPPC     H16R     HAL3     0.900000E-01   1.00800           0
      7886 MEMB     61       DPPC     H16S     HAL3     0.900000E-01   1.00800           0
      7887 MEMB     61       DPPC     H16T     HAL3     0.900000E-01   1.00800           0
      7888 MEMB     61       DPPC     C33      CTL2    -0.180000       12.0110           0
      7889 MEMB     61       DPPC     H3X      HAL2     0.900000E-01   1.00800           0
      7890 MEMB     61       DPPC     H3Y      HAL2     0.900000E-01   1.00800           0
      7891 MEMB     61       DPPC     C34      CTL2    -0.180000       12.0110           0
      7892 MEMB     61       DPPC     H4X      HAL2     0.900000E-01   1.00800           0
      7893 MEMB     61       DPPC     H4Y      HAL2     0.900000E-01   1.00800           0
      7894 MEMB     61       DPPC     C35      CTL2    -0.180000       12.0110           0
      7895 MEMB     61       DPPC     H5X      HAL2     0.900000E-01   1.00800           0
      7896 MEMB     61       DPPC     H5Y      HAL2     0.900000E-01   1.00800           0
      7897 MEMB     61       DPPC     C36      CTL2    -0.180000       12.0110           0
      7898 MEMB     61       DPPC     H6X      HAL2     0.900000E-01   1.00800           0
      7899 MEMB     61       DPPC     H6Y      HAL2     0.900000E-01   1.00800           0
      7900 MEMB     61       DPPC     C37      CTL2    -0.180000       12.0110           0
      7901 MEMB     61       DPPC     H7X      HAL2     0.900000E-01   1.00800           0
      7902 MEMB     61       DPPC     H7Y      HAL2     0.900000E-01   1.00800           0
      7903 MEMB     61       DPPC     C38      CTL2    -0.180000       12.0110           0
      7904 MEMB     61       DPPC     H8X      HAL2     0.900000E-01   1.00800           0
      7905 MEMB     61       DPPC     H8Y      HAL2     0.900000E-01   1.00800           0
      7906 MEMB     61       DPPC     C39      CTL2    -0.180000       12.0110           0
      7907 MEMB     61       DPPC     H9X      HAL2     0.900000E-01   1.00800           0
      7908 MEMB     61       DPPC     H9Y      HAL2     0.900000E-01   1.00800           0
      7909 MEMB     61       DPPC     C310     CTL2    -0.180000       12.0110           0
      7910 MEMB     61       DPPC     H10X     HAL2     0.900000E-01   1.00800           0
      7911 MEMB     61       DPPC     H10Y     HAL2     0.900000E-01   1.00800           0
      7912 MEMB     61       DPPC     C311     CTL2    -0.180000       12.0110           0
      7913 MEMB     61       DPPC     H11X     HAL2     0.900000E-01   1.00800           0
      7914 MEMB     61       DPPC     H11Y     HAL2     0.900000E-01   1.00800           0
      7915 MEMB     61       DPPC     C312     CTL2    -0.180000       12.0110           0
      7916 MEMB     61       DPPC     H12X     HAL2     0.900000E-01   1.00800           0
      7917 MEMB     61       DPPC     H12Y     HAL2     0.900000E-01   1.00800           0
      7918 MEMB     61       DPPC     C313     CTL2    -0.180000       12.0110           0
      7919 MEMB     61       DPPC     H13X     HAL2     0.900000E-01   1.00800           0
      7920 MEMB     61       DPPC     H13Y     HAL2     0.900000E-01   1.00800           0
      7921 MEMB     61       DPPC     C314     CTL2    -0.180000       12.0110           0
      7922 MEMB     61       DPPC     H14X     HAL2     0.900000E-01   1.00800           0
      7923 MEMB     61       DPPC     H14Y     HAL2     0.900000E-01   1.00800           0
      7924 MEMB     61       DPPC     C315     CTL2    -0.180000       12.0110           0
      7925 MEMB     61       DPPC     H15X     HAL2     0.900000E-01   1.00800           0
      7926 MEMB     61       DPPC     H15Y     HAL2     0.900000E-01   1.00800           0
      7927 MEMB     61       DPPC     C316     CTL3    -0.270000       12.0110           0
      7928 MEMB     61       DPPC     H16X     HAL3     0.900000E-01   1.00800           0
      7929 MEMB     61       DPPC     H16Y     HAL3     0.900000E-01   1.00800           0
      7930 MEMB     61       DPPC     H16Z     HAL3     0.900000E-01   1.00800           0
      7931 MEMB     62       DPPC     N        NTL     -0.600000       14.0070           0
      7932 MEMB     62       DPPC     C13      CTL5    -0.350000       12.0110           0
      7933 MEMB     62       DPPC     H13A     HL       0.250000       1.00800           0
      7934 MEMB     62       DPPC     H13B     HL       0.250000       1.00800           0
      7935 MEMB     62       DPPC     H13C     HL       0.250000       1.00800           0
      7936 MEMB     62       DPPC     C14      CTL5    -0.350000       12.0110           0
      7937 MEMB     62       DPPC     H14A     HL       0.250000       1.00800           0
      7938 MEMB     62       DPPC     H14B     HL       0.250000       1.00800           0
      7939 MEMB     62       DPPC     H14C     HL       0.250000       1.00800           0
      7940 MEMB     62       DPPC     C15      CTL5    -0.350000       12.0110           0
      7941 MEMB     62       DPPC     H15A     HL       0.250000       1.00800           0
      7942 MEMB     62       DPPC     H15B     HL       0.250000       1.00800           0
      7943 MEMB     62       DPPC     H15C     HL       0.250000       1.00800           0
      7944 MEMB     62       DPPC     C12      CTL2    -0.100000       12.0110           0
      7945 MEMB     62       DPPC     H12A     HL       0.250000       1.00800           0
      7946 MEMB     62       DPPC     H12B     HL       0.250000       1.00800           0
      7947 MEMB     62       DPPC     C11      CTL2    -0.800000E-01   12.0110           0
      7948 MEMB     62       DPPC     H11A     HAL2     0.900000E-01   1.00800           0
      7949 MEMB     62       DPPC     H11B     HAL2     0.900000E-01   1.00800           0
      7950 MEMB     62       DPPC     P        PL       1.500000       30.9740           0
      7951 MEMB     62       DPPC     O13      O2L     -0.780000       15.9994           0
      7952 MEMB     62       DPPC     O14      O2L     -0.780000       15.9994           0
      7953 MEMB     62       DPPC     O11      OSLP    -0.570000       15.9994           0
      7954 MEMB     62       DPPC     O12      OSLP    -0.570000       15.9994           0
      7955 MEMB     62       DPPC     C1       CTL2    -0.800000E-01   12.0110           0
      7956 MEMB     62       DPPC     HA       HAL2     0.900000E-01   1.00800           0
      7957 MEMB     62       DPPC     HB       HAL2     0.900000E-01   1.00800           0
      7958 MEMB     62       DPPC     C2       CTL1     0.170000       12.0110           0
      7959 MEMB     62       DPPC     HS       HAL1     0.900000E-01   1.00800           0
      7960 MEMB     62       DPPC     O21      OSL     -0.490000       15.9994           0
      7961 MEMB     62       DPPC     C21      CL       0.900000       12.0110           0
      7962 MEMB     62       DPPC     O22      OBL     -0.630000       15.9994           0
      7963 MEMB     62       DPPC     C22      CTL2    -0.220000       12.0110           0
      7964 MEMB     62       DPPC     H2R      HAL2     0.900000E-01   1.00800           0
      7965 MEMB     62       DPPC     H2S      HAL2     0.900000E-01   1.00800           0
      7966 MEMB     62       DPPC     C3       CTL2     0.800000E-01   12.0110           0
      7967 MEMB     62       DPPC     HX       HAL2     0.900000E-01   1.00800           0
      7968 MEMB     62       DPPC     HY       HAL2     0.900000E-01   1.00800           0
      7969 MEMB     62       DPPC     O31      OSL     -0.490000       15.9994           0
      7970 MEMB     62       DPPC     C31      CL       0.900000       12.0110           0
      7971 MEMB     62       DPPC     O32      OBL     -0.630000       15.9994           0
      7972 MEMB     62       DPPC     C32      CTL2    -0.220000       12.0110           0
      7973 MEMB     62       DPPC     H2X      HAL2     0.900000E-01   1.00800           0
      7974 MEMB     62       DPPC     H2Y      HAL2     0.900000E-01   1.00800           0
      7975 MEMB     62       DPPC     C23      CTL2    -0.180000       12.0110           0
      7976 MEMB     62       DPPC     H3R      HAL2     0.900000E-01   1.00800           0
      7977 MEMB     62       DPPC     H3S      HAL2     0.900000E-01   1.00800           0
      7978 MEMB     62       DPPC     C24      CTL2    -0.180000       12.0110           0
      7979 MEMB     62       DPPC     H4R      HAL2     0.900000E-01   1.00800           0
      7980 MEMB     62       DPPC     H4S      HAL2     0.900000E-01   1.00800           0
      7981 MEMB     62       DPPC     C25      CTL2    -0.180000       12.0110           0
      7982 MEMB     62       DPPC     H5R      HAL2     0.900000E-01   1.00800           0
      7983 MEMB     62       DPPC     H5S      HAL2     0.900000E-01   1.00800           0
      7984 MEMB     62       DPPC     C26      CTL2    -0.180000       12.0110           0
      7985 MEMB     62       DPPC     H6R      HAL2     0.900000E-01   1.00800           0
      7986 MEMB     62       DPPC     H6S      HAL2     0.900000E-01   1.00800           0
      7987 MEMB     62       DPPC     C27      CTL2    -0.180000       12.0110           0
      7988 MEMB     62       DPPC     H7R      HAL2     0.900000E-01   1.00800           0
      7989 MEMB     62       DPPC     H7S      HAL2     0.900000E-01   1.00800           0
      7990 MEMB     62       DPPC     C28      CTL2    -0.180000       12.0110           0
      7991 MEMB     62       DPPC     H8R      HAL2     0.900000E-01   1.00800           0
      7992 MEMB     62       DPPC     H8S      HAL2     0.900000E-01   1.00800           0
      7993 MEMB     62       DPPC     C29      CTL2    -0.180000       12.0110           0
      7994 MEMB     62       DPPC     H9R      HAL2     0.900000E-01   1.00800           0
      7995 MEMB     62       DPPC     H9S      HAL2     0.900000E-01   1.00800           0
      7996 MEMB     62       DPPC     C210     CTL2    -0.180000       12.0110           0
      7997 MEMB     62       DPPC     H10R     HAL2     0.900000E-01   1.00800           0
      7998 MEMB     62       DPPC     H10S     HAL2     0.900000E-01   1.00800           0
      7999 MEMB     62       DPPC     C211     CTL2    -0.180000       12.0110           0
      8000 MEMB     62       DPPC     H11R     HAL2     0.900000E-01   1.00800           0
      8001 MEMB     62       DPPC     H11S     HAL2     0.900000E-01   1.00800           0
      8002 MEMB     62       DPPC     C212     CTL2    -0.180000       12.0110           0
      8003 MEMB     62       DPPC     H12R     HAL2     0.900000E-01   1.00800           0
      8004 MEMB     62       DPPC     H12S     HAL2     0.900000E-01   1.00800           0
      8005 MEMB     62       DPPC     C213     CTL2    -0.180000       12.0110           0
      8006 MEMB     62       DPPC     H13R     HAL2     0.900000E-01   1.00800           0
      8007 MEMB     62       DPPC     H13S     HAL2     0.900000E-01   1.00800           0
      8008 MEMB     62       DPPC     C214     CTL2    -0.180000       12.0110           0
      8009 MEMB     62       DPPC     H14R     HAL2     0.900000E-01   1.00800           0
      8010 MEMB     62       DPPC     H14S     HAL2     0.900000E-01   1.00800           0
      8011 MEMB     62       DPPC     C215     CTL2    -0.180000       12.0110           0
      8012 MEMB     62       DPPC     H15R     HAL2     0.900000E-01   1.00800           0
      8013 MEMB     62       DPPC     H15S     HAL2     0.900000E-01   1.00800           0
      8014 MEMB     62       DPPC     C216     CTL3    -0.270000       12.0110           0
      8015 MEMB     62       DPPC     H16R     HAL3     0.900000E-01   1.00800           0
      8016 MEMB     62       DPPC     H16S     HAL3     0.900000E-01   1.00800           0
      8017 MEMB     62       DPPC     H16T     HAL3     0.900000E-01   1.00800           0
      8018 MEMB     62       DPPC     C33      CTL2    -0.180000       12.0110           0
      8019 MEMB     62       DPPC     H3X      HAL2     0.900000E-01   1.00800           0
      8020 MEMB     62       DPPC     H3Y      HAL2     0.900000E-01   1.00800           0
      8021 MEMB     62       DPPC     C34      CTL2    -0.180000       12.0110           0
      8022 MEMB     62       DPPC     H4X      HAL2     0.900000E-01   1.00800           0
      8023 MEMB     62       DPPC     H4Y      HAL2     0.900000E-01   1.00800           0
      8024 MEMB     62       DPPC     C35      CTL2    -0.180000       12.0110           0
      8025 MEMB     62       DPPC     H5X      HAL2     0.900000E-01   1.00800           0
      8026 MEMB     62       DPPC     H5Y      HAL2     0.900000E-01   1.00800           0
      8027 MEMB     62       DPPC     C36      CTL2    -0.180000       12.0110           0
      8028 MEMB     62       DPPC     H6X      HAL2     0.900000E-01   1.00800           0
      8029 MEMB     62       DPPC     H6Y      HAL2     0.900000E-01   1.00800           0
      8030 MEMB     62       DPPC     C37      CTL2    -0.180000       12.0110           0
      8031 MEMB     62       DPPC     H7X      HAL2     0.900000E-01   1.00800           0
      8032 MEMB     62       DPPC     H7Y      HAL2     0.900000E-01   1.00800           0
      8033 MEMB     62       DPPC     C38      CTL2    -0.180000       12.0110           0
      8034 MEMB     62       DPPC     H8X      HAL2     0.900000E-01   1.00800           0
      8035 MEMB     62       DPPC     H8Y      HAL2     0.900000E-01   1.00800           0
      8036 MEMB     62       DPPC     C39      CTL2    -0.180000       12.0110           0
      8037 MEMB     62       DPPC     H9X      HAL2     0.900000E-01   1.00800           0
      8038 MEMB     62       DPPC     H9Y      HAL2     0.900000E-01   1.00800           0
      8039 MEMB     62       DPPC     C310     CTL2    -0.180000       12.0110           0
      8040 MEMB     62       DPPC     H10X     HAL2     0.900000E-01   1.00800           0
      8041 MEMB     62       DPPC     H10Y     HAL2     0.900000E-01   1.00800           0
      8042 MEMB     62       DPPC     C311     CTL2    -0.180000       12.0110           0
      8043 MEMB     62       DPPC     H11X     HAL2     0.900000E-01   1.00800           0
      8044 MEMB     62       DPPC     H11Y     HAL2     0.900000E-01   1.00800           0
      8045 MEMB     62       DPPC     C312     CTL2    -0.180000       12.0110           0
      8046 MEMB     62       DPPC     H12X     HAL2     0.900000E-01   1.00800           0
      8047 MEMB     62       DPPC     H12Y     HAL2     0.900000E-01   1.00800           0
      8048 MEMB     62       DPPC     C313     CTL2    -0.180000       12.0110           0
      8049 MEMB     62       DPPC     H13X     HAL2     0.900000E-01   1.00800           0
      8050 MEMB     62       DPPC     H13Y     HAL2     0.900000E-01   1.00800           0
      8051 MEMB     62       DPPC     C314     CTL2    -0.180000       12.0110           0
      8052 MEMB     62       DPPC     H14X     HAL2     0.900000E-01   1.00800           0
      8053 MEMB     62       DPPC     H14Y     HAL2     0.900000E-01   1.00800           0
      8054 MEMB     62       DPPC     C315     CTL2    -0.180000       12.0110           0
      8055 MEMB     62       DPPC     H15X     HAL2     0.900000E-01   1.00800           0
      8056 MEMB     62       DPPC     H15Y     HAL2     0.900000E-01   1.00800           0
      8057 MEMB     62       DPPC     C316     CTL3    -0.270000       12.0110           0
      8058 MEMB     62       DPPC     H16X     HAL3     0.900000E-01   1.00800           0
      8059 MEMB     62       DPPC     H16Y     HAL3     0.900000E-01   1.00800           0
      8060 MEMB     62       DPPC     H16Z     HAL3     0.900000E-01   1.00800           0
      8061 MEMB     63       DPPC     N        NTL     -0.600000       14.0070           0
      8062 MEMB     63       DPPC     C13      CTL5    -0.350000       12.0110           0
      8063 MEMB     63       DPPC     H13A     HL       0.250000       1.00800           0
      8064 MEMB     63       DPPC     H13B     HL       0.250000       1.00800           0
      8065 MEMB     63       DPPC     H13C     HL       0.250000       1.00800           0
      8066 MEMB     63       DPPC     C14      CTL5    -0.350000       12.0110           0
      8067 MEMB     63       DPPC     H14A     HL       0.250000       1.00800           0
      8068 MEMB     63       DPPC     H14B     HL       0.250000       1.00800           0
      8069 MEMB     63       DPPC     H14C     HL       0.250000       1.00800           0
      8070 MEMB     63       DPPC     C15      CTL5    -0.350000       12.0110           0
      8071 MEMB     63       DPPC     H15A     HL       0.250000       1.00800           0
      8072 MEMB     63       DPPC     H15B     HL       0.250000       1.00800           0
      8073 MEMB     63       DPPC     H15C     HL       0.250000       1.00800           0
      8074 MEMB     63       DPPC     C12      CTL2    -0.100000       12.0110           0
      8075 MEMB     63       DPPC     H12A     HL       0.250000       1.00800           0
      8076 MEMB     63       DPPC     H12B     HL       0.250000       1.00800           0
      8077 MEMB     63       DPPC     C11      CTL2    -0.800000E-01   12.0110           0
      8078 MEMB     63       DPPC     H11A     HAL2     0.900000E-01   1.00800           0
      8079 MEMB     63       DPPC     H11B     HAL2     0.900000E-01   1.00800           0
      8080 MEMB     63       DPPC     P        PL       1.500000       30.9740           0
      8081 MEMB     63       DPPC     O13      O2L     -0.780000       15.9994           0
      8082 MEMB     63       DPPC     O14      O2L     -0.780000       15.9994           0
      8083 MEMB     63       DPPC     O11      OSLP    -0.570000       15.9994           0
      8084 MEMB     63       DPPC     O12      OSLP    -0.570000       15.9994           0
      8085 MEMB     63       DPPC     C1       CTL2    -0.800000E-01   12.0110           0
      8086 MEMB     63       DPPC     HA       HAL2     0.900000E-01   1.00800           0
      8087 MEMB     63       DPPC     HB       HAL2     0.900000E-01   1.00800           0
      8088 MEMB     63       DPPC     C2       CTL1     0.170000       12.0110           0
      8089 MEMB     63       DPPC     HS       HAL1     0.900000E-01   1.00800           0
      8090 MEMB     63       DPPC     O21      OSL     -0.490000       15.9994           0
      8091 MEMB     63       DPPC     C21      CL       0.900000       12.0110           0
      8092 MEMB     63       DPPC     O22      OBL     -0.630000       15.9994           0
      8093 MEMB     63       DPPC     C22      CTL2    -0.220000       12.0110           0
      8094 MEMB     63       DPPC     H2R      HAL2     0.900000E-01   1.00800           0
      8095 MEMB     63       DPPC     H2S      HAL2     0.900000E-01   1.00800           0
      8096 MEMB     63       DPPC     C3       CTL2     0.800000E-01   12.0110           0
      8097 MEMB     63       DPPC     HX       HAL2     0.900000E-01   1.00800           0
      8098 MEMB     63       DPPC     HY       HAL2     0.900000E-01   1.00800           0
      8099 MEMB     63       DPPC     O31      OSL     -0.490000       15.9994           0
      8100 MEMB     63       DPPC     C31      CL       0.900000       12.0110           0
      8101 MEMB     63       DPPC     O32      OBL     -0.630000       15.9994           0
      8102 MEMB     63       DPPC     C32      CTL2    -0.220000       12.0110           0
      8103 MEMB     63       DPPC     H2X      HAL2     0.900000E-01   1.00800           0
      8104 MEMB     63       DPPC     H2Y      HAL2     0.900000E-01   1.00800           0
      8105 MEMB     63       DPPC     C23      CTL2    -0.180000       12.0110           0
      8106 MEMB     63       DPPC     H3R      HAL2     0.900000E-01   1.00800           0
      8107 MEMB     63       DPPC     H3S      HAL2     0.900000E-01   1.00800           0
      8108 MEMB     63       DPPC     C24      CTL2    -0.180000       12.0110           0
      8109 MEMB     63       DPPC     H4R      HAL2     0.900000E-01   1.00800           0
      8110 MEMB     63       DPPC     H4S      HAL2     0.900000E-01   1.00800           0
      8111 MEMB     63       DPPC     C25      CTL2    -0.180000       12.0110           0
      8112 MEMB     63       DPPC     H5R      HAL2     0.900000E-01   1.00800           0
      8113 MEMB     63       DPPC     H5S      HAL2     0.900000E-01   1.00800           0
      8114 MEMB     63       DPPC     C26      CTL2    -0.180000       12.0110           0
      8115 MEMB     63       DPPC     H6R      HAL2     0.900000E-01   1.00800           0
      8116 MEMB     63       DPPC     H6S      HAL2     0.900000E-01   1.00800           0
      8117 MEMB     63       DPPC     C27      CTL2    -0.180000       12.0110           0
      8118 MEMB     63       DPPC     H7R      HAL2     0.900000E-01   1.00800           0
      8119 MEMB     63       DPPC     H7S      HAL2     0.900000E-01   1.00800           0
      8120 MEMB     63       DPPC     C28      CTL2    -0.180000       12.0110           0
      8121 MEMB     63       DPPC     H8R      HAL2     0.900000E-01   1.00800           0
      8122 MEMB     63       DPPC     H8S      HAL2     0.900000E-01   1.00800           0
      8123 MEMB     63       DPPC     C29      CTL2    -0.180000       12.0110           0
      8124 MEMB     63       DPPC     H9R      HAL2     0.900000E-01   1.00800           0
      8125 MEMB     63       DPPC     H9S      HAL2     0.900000E-01   1.00800           0
      8126 MEMB     63       DPPC     C210     CTL2    -0.180000       12.0110           0
      8127 MEMB     63       DPPC     H10R     HAL2     0.900000E-01   1.00800           0
      8128 MEMB     63       DPPC     H10S     HAL2     0.900000E-01   1.00800           0
      8129 MEMB     63       DPPC     C211     CTL2    -0.180000       12.0110           0
      8130 MEMB     63       DPPC     H11R     HAL2     0.900000E-01   1.00800           0
      8131 MEMB     63       DPPC     H11S     HAL2     0.900000E-01   1.00800           0
      8132 MEMB     63       DPPC     C212     CTL2    -0.180000       12.0110           0
      8133 MEMB     63       DPPC     H12R     HAL2     0.900000E-01   1.00800           0
      8134 MEMB     63       DPPC     H12S     HAL2     0.900000E-01   1.00800           0
      8135 MEMB     63       DPPC     C213     CTL2    -0.180000       12.0110           0
      8136 MEMB     63       DPPC     H13R     HAL2     0.900000E-01   1.00800           0
      8137 MEMB     63       DPPC     H13S     HAL2     0.900000E-01   1.00800           0
      8138 MEMB     63       DPPC     C214     CTL2    -0.180000       12.0110           0
      8139 MEMB     63       DPPC     H14R     HAL2     0.900000E-01   1.00800           0
      8140 MEMB     63       DPPC     H14S     HAL2     0.900000E-01   1.00800           0
      8141 MEMB     63       DPPC     C215     CTL2    -0.180000       12.0110           0
      8142 MEMB     63       DPPC     H15R     HAL2     0.900000E-01   1.00800           0
      8143 MEMB     63       DPPC     H15S     HAL2     0.900000E-01   1.00800           0
      8144 MEMB     63       DPPC     C216     CTL3    -0.270000       12.0110           0
      8145 MEMB     63       DPPC     H16R     HAL3     0.900000E-01   1.00800           0
      8146 MEMB     63       DPPC     H16S     HAL3     0.900000E-01   1.00800           0
      8147 MEMB     63       DPPC     H16T     HAL3     0.900000E-01   1.00800           0
      8148 MEMB     63       DPPC     C33      CTL2    -0.180000       12.0110           0
      8149 MEMB     63       DPPC     H3X      HAL2     0.900000E-01   1.00800           0
      8150 MEMB     63       DPPC     H3Y      HAL2     0.900000E-01   1.00800           0
      8151 MEMB     63       DPPC     C34      CTL2    -0.180000       12.0110           0
      8152 MEMB     63       DPPC     H4X      HAL2     0.900000E-01   1.00800           0
      8153 MEMB     63       DPPC     H4Y      HAL2     0.900000E-01   1.00800           0
      8154 MEMB     63       DPPC     C35      CTL2    -0.180000       12.0110           0
      8155 MEMB     63       DPPC     H5X      HAL2     0.900000E-01   1.00800           0
      8156 MEMB     63       DPPC     H5Y      HAL2     0.900000E-01   1.00800           0
      8157 MEMB     63       DPPC     C36      CTL2    -0.180000       12.0110           0
      8158 MEMB     63       DPPC     H6X      HAL2     0.900000E-01   1.00800           0
      8159 MEMB     63       DPPC     H6Y      HAL2     0.900000E-01   1.00800           0
      8160 MEMB     63       DPPC     C37      CTL2    -0.180000       12.0110           0
      8161 MEMB     63       DPPC     H7X      HAL2     0.900000E-01   1.00800           0
      8162 MEMB     63       DPPC     H7Y      HAL2     0.900000E-01   1.00800           0
      8163 MEMB     63       DPPC     C38      CTL2    -0.180000       12.0110           0
      8164 MEMB     63       DPPC     H8X      HAL2     0.900000E-01   1.00800           0
      8165 MEMB     63       DPPC     H8Y      HAL2     0.900000E-01   1.00800           0
      8166 MEMB     63       DPPC     C39      CTL2    -0.180000       12.0110           0
      8167 MEMB     63       DPPC     H9X      HAL2     0.900000E-01   1.00800           0
      8168 MEMB     63       DPPC     H9Y      HAL2     0.900000E-01   1.00800           0
      8169 MEMB     63       DPPC     C310     CTL2    -0.180000       12.0110           0
      8170 MEMB     63       DPPC     H10X     HAL2     0.900000E-01   1.00800           0
      8171 MEMB     63       DPPC     H10Y     HAL2     0.900000E-01   1.00800           0
      8172 MEMB     63       DPPC     C311     CTL2    -0.180000       12.0110           0
      8173 MEMB     63       DPPC     H11X     HAL2     0.900000E-01   1.00800           0
      8174 MEMB     63       DPPC     H11Y     HAL2     0.900000E-01   1.00800           0
      8175 MEMB     63       DPPC     C312     CTL2    -0.180000       12.0110           0
      8176 MEMB     63       DPPC     H12X     HAL2     0.900000E-01   1.00800           0
      8177 MEMB     63       DPPC     H12Y     HAL2     0.900000E-01   1.00800           0
      8178 MEMB     63       DPPC     C313     CTL2    -0.180000       12.0110           0
      8179 MEMB     63       DPPC     H13X     HAL2     0.900000E-01   1.00800           0
      8180 MEMB     63       DPPC     H13Y     HAL2     0.900000E-01   1.00800           0
      8181 MEMB     63       DPPC     C314     CTL2    -0.180000       12.0110           0
      8182 MEMB     63       DPPC     H14X     HAL2     0.900000E-01   1.00800           0
      8183 MEMB     63       DPPC     H14Y     HAL2     0.900000E-01   1.00800           0
      8184 MEMB     63       DPPC     C315     CTL2    -0.180000       12.0110           0
      8185 MEMB     63       DPPC     H15X     HAL2     0.900000E-01   1.00800           0
      8186 MEMB     63       DPPC     H15Y     HAL2     0.900000E-01   1.00800           0
      8187 MEMB     63       DPPC     C316     CTL3    -0.270000       12.0110           0
      8188 MEMB     63       DPPC     H16X     HAL3     0.900000E-01   1.00800           0
      8189 MEMB     63       DPPC     H16Y     HAL3     0.900000E-01   1.00800           0
      8190 MEMB     63       DPPC     H16Z     HAL3     0.900000E-01   1.00800           0
      8191 MEMB     64       DPPC     N        NTL     -0.600000       14.0070           0
      8192 MEMB     64       DPPC     C13      CTL5    -0.350000       12.0110           0
      8193 MEMB     64       DPPC     H13A     HL       0.250000       1.00800           0
      8194 MEMB     64       DPPC     H13B     HL       0.250000       1.00800           0
      8195 MEMB     64       DPPC     H13C     HL       0.250000       1.00800           0
      8196 MEMB     64       DPPC     C14      CTL5    -0.350000       12.0110           0
      8197 MEMB     64       DPPC     H14A     HL       0.250000       1.00800           0
      8198 MEMB     64       DPPC     H14B     HL       0.250000       1.00800           0
      8199 MEMB     64       DPPC     H14C     HL       0.250000       1.00800           0
      8200 MEMB     64       DPPC     C15      CTL5    -0.350000       12.0110           0
      8201 MEMB     64       DPPC     H15A     HL       0.250000       1.00800           0
      8202 MEMB     64       DPPC     H15B     HL       0.250000       1.00800           0
      8203 MEMB     64       DPPC     H15C     HL       0.250000       1.00800           0
      8204 MEMB     64       DPPC     C12      CTL2    -0.100000       12.0110           0
      8205 MEMB     64       DPPC     H12A     HL       0.250000       1.00800           0
      8206 MEMB     64       DPPC     H12B     HL       0.250000       1.00800           0
      8207 MEMB     64       DPPC     C11      CTL2    -0.800000E-01   12.0110           0
      8208 MEMB     64       DPPC     H11A     HAL2     0.900000E-01   1.00800           0
      8209 MEMB     64       DPPC     H11B     HAL2     0.900000E-01   1.00800           0
      8210 MEMB     64       DPPC     P        PL       1.500000       30.9740           0
      8211 MEMB     64       DPPC     O13      O2L     -0.780000       15.9994           0
      8212 MEMB     64       DPPC     O14      O2L     -0.780000       15.9994           0
      8213 MEMB     64       DPPC     O11      OSLP    -0.570000       15.9994           0
      8214 MEMB     64       DPPC     O12      OSLP    -0.570000       15.9994           0
      8215 MEMB     64       DPPC     C1       CTL2    -0.800000E-01   12.0110           0
      8216 MEMB     64       DPPC     HA       HAL2     0.900000E-01   1.00800           0
      8217 MEMB     64       DPPC     HB       HAL2     0.900000E-01   1.00800           0
      8218 MEMB     64       DPPC     C2       CTL1     0.170000       12.0110           0
      8219 MEMB     64       DPPC     HS       HAL1     0.900000E-01   1.00800           0
      8220 MEMB     64       DPPC     O21      OSL     -0.490000       15.9994           0
      8221 MEMB     64       DPPC     C21      CL       0.900000       12.0110           0
      8222 MEMB     64       DPPC     O22      OBL     -0.630000       15.9994           0
      8223 MEMB     64       DPPC     C22      CTL2    -0.220000       12.0110           0
      8224 MEMB     64       DPPC     H2R      HAL2     0.900000E-01   1.00800           0
      8225 MEMB     64       DPPC     H2S      HAL2     0.900000E-01   1.00800           0
      8226 MEMB     64       DPPC     C3       CTL2     0.800000E-01   12.0110           0
      8227 MEMB     64       DPPC     HX       HAL2     0.900000E-01   1.00800           0
      8228 MEMB     64       DPPC     HY       HAL2     0.900000E-01   1.00800           0
      8229 MEMB     64       DPPC     O31      OSL     -0.490000       15.9994           0
      8230 MEMB     64       DPPC     C31      CL       0.900000       12.0110           0
      8231 MEMB     64       DPPC     O32      OBL     -0.630000       15.9994           0
      8232 MEMB     64       DPPC     C32      CTL2    -0.220000       12.0110           0
      8233 MEMB     64       DPPC     H2X      HAL2     0.900000E-01   1.00800           0
      8234 MEMB     64       DPPC     H2Y      HAL2     0.900000E-01   1.00800           0
      8235 MEMB     64       DPPC     C23      CTL2    -0.180000       12.0110           0
      8236 MEMB     64       DPPC     H3R      HAL2     0.900000E-01   1.00800           0
      8237 MEMB     64       DPPC     H3S      HAL2     0.900000E-01   1.00800           0
      8238 MEMB     64       DPPC     C24      CTL2    -0.180000       12.0110           0
      8239 MEMB     64       DPPC     H4R      HAL2     0.900000E-01   1.00800           0
      8240 MEMB     64       DPPC     H4S      HAL2     0.900000E-01   1.00800           0
      8241 MEMB     64       DPPC     C25      CTL2    -0.180000       12.0110           0
      8242 MEMB     64       DPPC     H5R      HAL2     0.900000E-01   1.00800           0
      8243 MEMB     64       DPPC     H5S      HAL2     0.900000E-01   1.00800           0
      8244 MEMB     64       DPPC     C26      CTL2    -0.180000       12.0110           0
      8245 MEMB     64       DPPC     H6R      HAL2     0.900000E-01   1.00800           0
      8246 MEMB     64       DPPC     H6S      HAL2     0.900000E-01   1.00800           0
      8247 MEMB     64       DPPC     C27      CTL2    -0.180000       12.0110           0
      8248 MEMB     64       DPPC     H7R      HAL2     0.900000E-01   1.00800           0
      8249 MEMB     64       DPPC     H7S      HAL2     0.900000E-01   1.00800           0
      8250 MEMB     64       DPPC     C28      CTL2    -0.180000       12.0110           0
      8251 MEMB     64       DPPC     H8R      HAL2     0.900000E-01   1.00800           0
      8252 MEMB     64       DPPC     H8S      HAL2     0.900000E-01   1.00800           0
      8253 MEMB     64       DPPC     C29      CTL2    -0.180000       12.0110           0
      8254 MEMB     64       DPPC     H9R      HAL2     0.900000E-01   1.00800           0
      8255 MEMB     64       DPPC     H9S      HAL2     0.900000E-01   1.00800           0
      8256 MEMB     64       DPPC     C210     CTL2    -0.180000       12.0110           0
      8257 MEMB     64       DPPC     H10R     HAL2     0.900000E-01   1.00800           0
      8258 MEMB     64       DPPC     H10S     HAL2     0.900000E-01   1.00800           0
      8259 MEMB     64       DPPC     C211     CTL2    -0.180000       12.0110           0
      8260 MEMB     64       DPPC     H11R     HAL2     0.900000E-01   1.00800           0
      8261 MEMB     64       DPPC     H11S     HAL2     0.900000E-01   1.00800           0
      8262 MEMB     64       DPPC     C212     CTL2    -0.180000       12.0110           0
      8263 MEMB     64       DPPC     H12R     HAL2     0.900000E-01   1.00800           0
      8264 MEMB     64       DPPC     H12S     HAL2     0.900000E-01   1.00800           0
      8265 MEMB     64       DPPC     C213     CTL2    -0.180000       12.0110           0
      8266 MEMB     64       DPPC     H13R     HAL2     0.900000E-01   1.00800           0
      8267 MEMB     64       DPPC     H13S     HAL2     0.900000E-01   1.00800           0
      8268 MEMB     64       DPPC     C214     CTL2    -0.180000       12.0110           0
      8269 MEMB     64       DPPC     H14R     HAL2     0.900000E-01   1.00800           0
      8270 MEMB     64       DPPC     H14S     HAL2     0.900000E-01   1.00800           0
      8271 MEMB     64       DPPC     C215     CTL2    -0.180000       12.0110           0
      8272 MEMB     64       DPPC     H15R     HAL2     0.900000E-01   1.00800           0
      8273 MEMB     64       DPPC     H15S     HAL2     0.900000E-01   1.00800           0
      8274 MEMB     64       DPPC     C216     CTL3    -0.270000       12.0110           0
      8275 MEMB     64       DPPC     H16R     HAL3     0.900000E-01   1.00800           0
      8276 MEMB     64       DPPC     H16S     HAL3     0.900000E-01   1.00800           0
      8277 MEMB     64       DPPC     H16T     HAL3     0.900000E-01   1.00800           0
      8278 MEMB     64       DPPC     C33      CTL2    -0.180000       12.0110           0
      8279 MEMB     64       DPPC     H3X      HAL2     0.900000E-01   1.00800           0
      8280 MEMB     64       DPPC     H3Y      HAL2     0.900000E-01   1.00800           0
      8281 MEMB     64       DPPC     C34      CTL2    -0.180000       12.0110           0
      8282 MEMB     64       DPPC     H4X      HAL2     0.900000E-01   1.00800           0
      8283 MEMB     64       DPPC     H4Y      HAL2     0.900000E-01   1.00800           0
      8284 MEMB     64       DPPC     C35      CTL2    -0.180000       12.0110           0
      8285 MEMB     64       DPPC     H5X      HAL2     0.900000E-01   1.00800           0
      8286 MEMB     64       DPPC     H5Y      HAL2     0.900000E-01   1.00800           0
      8287 MEMB     64       DPPC     C36      CTL2    -0.180000       12.0110           0
      8288 MEMB     64       DPPC     H6X      HAL2     0.900000E-01   1.00800           0
      8289 MEMB     64       DPPC     H6Y      HAL2     0.900000E-01   1.00800           0
      8290 MEMB     64       DPPC     C37      CTL2    -0.180000       12.0110           0
      8291 MEMB     64       DPPC     H7X      HAL2     0.900000E-01   1.00800           0
      8292 MEMB     64       DPPC     H7Y      HAL2     0.900000E-01   1.00800           0
      8293 MEMB     64       DPPC     C38      CTL2    -0.180000       12.0110           0
      8294 MEMB     64       DPPC     H8X      HAL2     0.900000E-01   1.00800           0
      8295 MEMB     64       DPPC     H8Y      HAL2     0.900000E-01   1.00800           0
      8296 MEMB     64       DPPC     C39      CTL2    -0.180000       12.0110           0
      8297 MEMB     64       DPPC     H9X      HAL2     0.900000E-01   1.00800           0
      8298 MEMB     64       DPPC     H9Y      HAL2     0.900000E-01   1.00800           0
      8299 MEMB     64       DPPC     C310     CTL2    -0.180000       12.0110           0
      8300 MEMB     64       DPPC     H10X     HAL2     0.900000E-01   1.00800           0
      8301 MEMB     64       DPPC     H10Y     HAL2     0.900000E-01   1.00800           0
      8302 MEMB     64       DPPC     C311     CTL2    -0.180000       12.0110           0
      8303 MEMB     64       DPPC     H11X     HAL2     0.900000E-01   1.00800           0
      8304 MEMB     64       DPPC     H11Y     HAL2     0.900000E-01   1.00800           0
      8305 MEMB     64       DPPC     C312     CTL2    -0.180000       12.0110           0
      8306 MEMB     64       DPPC     H12X     HAL2     0.900000E-01   1.00800           0
      8307 MEMB     64       DPPC     H12Y     HAL2     0.900000E-01   1.00800           0
      8308 MEMB     64       DPPC     C313     CTL2    -0.180000       12.0110           0
      8309 MEMB     64       DPPC     H13X     HAL2     0.900000E-01   1.00800           0
      8310 MEMB     64       DPPC     H13Y     HAL2     0.900000E-01   1.00800           0
      8311 MEMB     64       DPPC     C314     CTL2    -0.180000       12.0110           0
      8312 MEMB     64       DPPC     H14X     HAL2     0.900000E-01   1.00800           0
      8313 MEMB     64       DPPC     H14Y     HAL2     0.900000E-01   1.00800           0
      8314 MEMB     64       DPPC     C315     CTL2    -0.180000       12.0110           0
      8315 MEMB     64       DPPC     H15X     HAL2     0.900000E-01   1.00800           0
      8316 MEMB     64       DPPC     H15Y     HAL2     0.900000E-01   1.00800           0
      8317 MEMB     64       DPPC     C316     CTL3    -0.270000       12.0110           0
      8318 MEMB     64       DPPC     H16X     HAL3     0.900000E-01   1.00800           0
      8319 MEMB     64       DPPC     H16Y     HAL3     0.900000E-01   1.00800           0
      8320 MEMB     64       DPPC     H16Z     HAL3     0.900000E-01   1.00800           0
      8321 TIP3     1        TIP3     OH2      OT      -0.834000       15.9994           0
      8322 TIP3     1        TIP3     H1       HT       0.417000       1.00800           0
      8323 TIP3     1        TIP3     H2       HT       0.417000       1.00800           0
      8324 TIP3     2        TIP3     OH2      OT      -0.834000       15.9994           0
      8325 TIP3     2        TIP3     H1       HT       0.417000       1.00800           0
      8326 TIP3     2        TIP3     H2       HT       0.417000       1.00800           0
      8327 TIP3     3        TIP3     OH2      OT      -0.834000       15.9994           0
      8328 TIP3     3        TIP3     H1       HT       0.417000       1.00800           0
      8329 TIP3     3        TIP3     H2       HT       0.417000       1.00800           0
      8330 TIP3     4        TIP3     OH2      OT      -0.834000       15.9994           0
      8331 TIP3     4        TIP3     H1       HT       0.417000       1.00800           0
      8332 TIP3     4        TIP3     H2       HT       0.417000       1.00800           0
      8333 TIP3     5        TIP3     OH2      OT      -0.834000       15.9994           0
      8334 TIP3     5        TIP3     H1       HT       0.417000       1.00800           0
      8335 TIP3     5        TIP3     H2       HT       0.417000       1.00800           0
      8336 TIP3     6        TIP3     OH2      OT      -0.834000       15.9994           0
      8337 TIP3     6        TIP3     H1       HT       0.417000       1.00800           0
      8338 TIP3     6        TIP3     H2       HT       0.417000       1.00800           0
      8339 TIP3     7        TIP3     OH2      OT      -0.834000       15.9994           0
      8340 TIP3     7        TIP3     H1       HT       0.417000       1.00800           0
      8341 TIP3     7        TIP3     H2       HT       0.417000       1.00800           0
      8342 TIP3     8        TIP3     OH2      OT      -0.834000       15.9994           0
      8343 TIP3     8        TIP3     H1       HT       0.417000       1.00800           0
      8344 TIP3     8        TIP3     H2       HT       0.417000       1.00800           0
      8345 TIP3     9        TIP3     OH2      OT      -0.834000       15.9994           0
      8346 TIP3     9        TIP3     H1       HT       0.417000       1.00800           0
      8347 TIP3     9        TIP3     H2       HT       0.417000       1.00800           0
      8348 TIP3     10       TIP3     OH2      OT      -0.834000       15.9994           0
      8349 TIP3     10       TIP3     H1       HT       0.417000       1.00800           0
      8350 TIP3     10       TIP3     H2       HT       0.417000       1.00800           0
      8351 TIP3     11       TIP3     OH2      OT      -0.834000       15.9994           0
      8352 TIP3     11       TIP3     H1       HT       0.417000       1.00800           0
      8353 TIP3     11       TIP3     H2       HT       0.417000       1.00800           0
      8354 TIP3     12       TIP3     OH2      OT      -0.834000       15.9994           0
      8355 TIP3     12       TIP3     H1       HT       0.417000       1.00800           0
      8356 TIP3     12       TIP3     H2       HT       0.417000       1.00800           0
      8357 TIP3     13       TIP3     OH2      OT      -0.834000       15.9994           0
      8358 TIP3     13       TIP3     H1       HT       0.417000       1.00800           0
      8359 TIP3     13       TIP3     H2       HT       0.417000       1.00800           0
      8360 TIP3     14       TIP3     OH2      OT      -0.834000       15.9994           0
      8361 TIP3     14       TIP3     H1       HT       0.417000       1.00800           0
      8362 TIP3     14       TIP3     H2       HT       0.417000       1.00800           0
      8363 TIP3     15       TIP3     OH2      OT      -0.834000       15.9994           0
      8364 TIP3     15       TIP3     H1       HT       0.417000       1.00800           0
      8365 TIP3     15       TIP3     H2       HT       0.417000       1.00800           0
      8366 TIP3     16       TIP3     OH2      OT      -0.834000       15.9994           0
      8367 TIP3     16       TIP3     H1       HT       0.417000       1.00800           0
      8368 TIP3     16       TIP3     H2       HT       0.417000       1.00800           0
      8369 TIP3     17       TIP3     OH2      OT      -0.834000       15.9994           0
      8370 TIP3     17       TIP3     H1       HT       0.417000       1.00800           0
      8371 TIP3     17       TIP3     H2       HT       0.417000       1.00800           0
      8372 TIP3     18       TIP3     OH2      OT      -0.834000       15.9994           0
      8373 TIP3     18       TIP3     H1       HT       0.417000       1.00800           0
      8374 TIP3     18       TIP3     H2       HT       0.417000       1.00800           0
      8375 TIP3     19       TIP3     OH2      OT      -0.834000       15.9994           0
      8376 TIP3     19       TIP3     H1       HT       0.417000       1.00800           0
      8377 TIP3     19       TIP3     H2       HT       0.417000       1.00800           0
      8378 TIP3     20       TIP3     OH2      OT      -0.834000       15.9994           0
      8379 TIP3     20       TIP3     H1       HT       0.417000       1.00800           0
      8380 TIP3     20       TIP3     H2       HT       0.417000       1.00800           0
      8381 TIP3     21       TIP3     OH2      OT      -0.834000       15.9994           0
      8382 TIP3     21       TIP3     H1       HT       0.417000       1.00800           0
      8383 TIP3     21       TIP3     H2       HT       0.417000       1.00800           0
      8384 TIP3     22       TIP3     OH2      OT      -0.834000       15.9994           0
      8385 TIP3     22       TIP3     H1       HT       0.417000       1.00800           0
      8386 TIP3     22       TIP3     H2       HT       0.417000       1.00800           0
      8387 TIP3     23       TIP3     OH2      OT      -0.834000       15.9994           0
      8388 TIP3     23       TIP3     H1       HT       0.417000       1.00800           0
      8389 TIP3     23       TIP3     H2       HT       0.417000       1.00800           0
      8390 TIP3     24       TIP3     OH2      OT      -0.834000       15.9994           0
      8391 TIP3     24       TIP3     H1       HT       0.417000       1.00800           0
      8392 TIP3     24       TIP3     H2       HT       0.417000       1.00800           0
      8393 TIP3     25       TIP3     OH2      OT      -0.834000       15.9994           0
      8394 TIP3     25       TIP3     H1       HT       0.417000       1.00800           0
      8395 TIP3     25       TIP3     H2       HT       0.417000       1.00800           0
      8396 TIP3     26       TIP3     OH2      OT      -0.834000       15.9994           0
      8397 TIP3     26       TIP3     H1       HT       0.417000       1.00800           0
      8398 TIP3     26       TIP3     H2       HT       0.417000       1.00800           0
      8399 TIP3     27       TIP3     OH2      OT      -0.834000       15.9994           0
      8400 TIP3     27       TIP3     H1       HT       0.417000       1.00800           0
      8401 TIP3     27       TIP3     H2       HT       0.417000       1.00800           0
      8402 TIP3     28       TIP3     OH2      OT      -0.834000       15.9994           0
      8403 TIP3     28       TIP3     H1       HT       0.417000       1.00800           0
      8404 TIP3     28       TIP3     H2       HT       0.417000       1.00800           0
      8405 TIP3     29       TIP3     OH2      OT      -0.834000       15.9994           0
      8406 TIP3     29       TIP3     H1       HT       0.417000       1.00800           0
      8407 TIP3     29       TIP3     H2       HT       0.417000       1.00800           0
      8408 TIP3     30       TIP3     OH2      OT      -0.834000       15.9994           0
      8409 TIP3     30       TIP3     H1       HT       0.417000       1.00800           0
      8410 TIP3     30       TIP3     H2       HT       0.417000       1.00800           0
      8411 TIP3     31       TIP3     OH2      OT      -0.834000       15.9994           0
      8412 TIP3     31       TIP3     H1       HT       0.417000       1.00800           0
      8413 TIP3     31       TIP3     H2       HT       0.417000       1.00800           0
      8414 TIP3     32       TIP3     OH2      OT      -0.834000       15.9994           0
      8415 TIP3     32       TIP3     H1       HT       0.417000       1.00800           0
      8416 TIP3     32       TIP3     H2       HT       0.417000       1.00800           0
      8417 TIP3     33       TIP3     OH2      OT      -0.834000       15.9994           0
      8418 TIP3     33       TIP3     H1       HT       0.417000       1.00800           0
      8419 TIP3     33       TIP3     H2       HT       0.417000       1.00800           0
      8420 TIP3     34       TIP3     OH2      OT      -0.834000       15.9994           0
      8421 TIP3     34       TIP3     H1       HT       0.417000       1.00800           0
      8422 TIP3     34       TIP3     H2       HT       0.417000       1.00800           0
      8423 TIP3     35       TIP3     OH2      OT      -0.834000       15.9994           0
      8424 TIP3     35       TIP3     H1       HT       0.417000       1.00800           0
      8425 TIP3     35       TIP3     H2       HT       0.417000       1.00800           0
      8426 TIP3     36       TIP3     OH2      OT      -0.834000       15.9994           0
      8427 TIP3     36       TIP3     H1       HT       0.417000       1.00800           0
      8428 TIP3     36       TIP3     H2       HT       0.417000       1.00800           0
      8429 TIP3     37       TIP3     OH2      OT      -0.834000       15.9994           0
      8430 TIP3     37       TIP3     H1       HT       0.417000       1.00800           0
      8431 TIP3     37       TIP3     H2       HT       0.417000       1.00800           0
      8432 TIP3     38       TIP3     OH2      OT      -0.834000       15.9994           0
      8433 TIP3     38       TIP3     H1       HT       0.417000       1.00800           0
      8434 TIP3     38       TIP3     H2       HT       0.417000       1.00800           0
      8435 TIP3     39       TIP3     OH2      OT      -0.834000       15.9994           0
      8436 TIP3     39       TIP3     H1       HT       0.417000       1.00800           0
      8437 TIP3     39       TIP3     H2       HT       0.417000       1.00800           0
      8438 TIP3     40       TIP3     OH2      OT      -0.834000       15.9994           0
      8439 TIP3     40       TIP3     H1       HT       0.417000       1.00800           0
      8440 TIP3     40       TIP3     H2       HT       0.417000       1.00800           0
      8441 TIP3     41       TIP3     OH2      OT      -0.834000       15.9994           0
      8442 TIP3     41       TIP3     H1       HT       0.417000       1.00800           0
      8443 TIP3     41       TIP3     H2       HT       0.417000       1.00800           0
      8444 TIP3     42       TIP3     OH2      OT      -0.834000       15.9994           0
      8445 TIP3     42       TIP3     H1       HT       0.417000       1.00800           0
      8446 TIP3     42       TIP3     H2       HT       0.417000       1.00800           0
      8447 TIP3     43       TIP3     OH2      OT      -0.834000       15.9994           0
      8448 TIP3     43       TIP3     H1       HT       0.417000       1.00800           0
      8449 TIP3     43       TIP3     H2       HT       0.417000       1.00800           0
      8450 TIP3     44       TIP3     OH2      OT      -0.834000       15.9994           0
      8451 TIP3     44       TIP3     H1       HT       0.417000       1.00800           0
      8452 TIP3     44       TIP3     H2       HT       0.417000       1.00800           0
      8453 TIP3     45       TIP3     OH2      OT      -0.834000       15.9994           0
      8454 TIP3     45       TIP3     H1       HT       0.417000       1.00800           0
      8455 TIP3     45       TIP3     H2       HT       0.417000       1.00800           0
      8456 TIP3     46       TIP3     OH2      OT      -0.834000       15.9994           0
      8457 TIP3     46       TIP3     H1       HT       0.417000       1.00800           0
      8458 TIP3     46       TIP3     H2       HT       0.417000       1.00800           0
      8459 TIP3     47       TIP3     OH2      OT      -0.834000       15.9994           0
      8460 TIP3     47       TIP3     H1       HT       0.417000       1.00800           0
      8461 TIP3     47       TIP3     H2       HT       0.417000       1.00800           0
      8462 TIP3     48       TIP3     OH2      OT      -0.834000       15.9994           0
      8463 TIP3     48       TIP3     H1       HT       0.417000       1.00800           0
      8464 TIP3     48       TIP3     H2       HT       0.417000       1.00800           0
      8465 TIP3     49       TIP3     OH2      OT      -0.834000       15.9994           0
      8466 TIP3     49       TIP3     H1       HT       0.417000       1.00800           0
      8467 TIP3     49       TIP3     H2       HT       0.417000       1.00800           0
      8468 TIP3     50       TIP3     OH2      OT      -0.834000       15.9994           0
      8469 TIP3     50       TIP3     H1       HT       0.417000       1.00800           0
      8470 TIP3     50       TIP3     H2       HT       0.417000       1.00800           0
      8471 TIP3     51       TIP3     OH2      OT      -0.834000       15.9994           0
      8472 TIP3     51       TIP3     H1       HT       0.417000       1.00800           0
      8473 TIP3     51       TIP3     H2       HT       0.417000       1.00800           0
      8474 TIP3     52       TIP3     OH2      OT      -0.834000       15.9994           0
      8475 TIP3     52       TIP3     H1       HT       0.417000       1.00800           0
      8476 TIP3     52       TIP3     H2       HT       0.417000       1.00800           0
      8477 TIP3     53       TIP3     OH2      OT      -0.834000       15.9994           0
      8478 TIP3     53       TIP3     H1       HT       0.417000       1.00800           0
      8479 TIP3     53       TIP3     H2       HT       0.417000       1.00800           0
      8480 TIP3     54       TIP3     OH2      OT      -0.834000       15.9994           0
      8481 TIP3     54       TIP3     H1       HT       0.417000       1.00800           0
      8482 TIP3     54       TIP3     H2       HT       0.417000       1.00800           0
      8483 TIP3     55       TIP3     OH2      OT      -0.834000       15.9994           0
      8484 TIP3     55       TIP3     H1       HT       0.417000       1.00800           0
      8485 TIP3     55       TIP3     H2       HT       0.417000       1.00800           0
      8486 TIP3     56       TIP3     OH2      OT      -0.834000       15.9994           0
      8487 TIP3     56       TIP3     H1       HT       0.417000       1.00800           0
      8488 TIP3     56       TIP3     H2       HT       0.417000       1.00800           0
      8489 TIP3     57       TIP3     OH2      OT      -0.834000       15.9994           0
      8490 TIP3     57       TIP3     H1       HT       0.417000       1.00800           0
      8491 TIP3     57       TIP3     H2       HT       0.417000       1.00800           0
      8492 TIP3     58       TIP3     OH2      OT      -0.834000       15.9994           0
      8493 TIP3     58       TIP3     H1       HT       0.417000       1.00800           0
      8494 TIP3     58       TIP3     H2       HT       0.417000       1.00800           0
      8495 TIP3     59       TIP3     OH2      OT      -0.834000       15.9994           0
      8496 TIP3     59       TIP3     H1       HT       0.417000       1.00800           0
      8497 TIP3     59       TIP3     H2       HT       0.417000       1.00800           0
      8498 TIP3     60       TIP3     OH2      OT      -0.834000       15.9994           0
      8499 TIP3     60       TIP3     H1       HT       0.417000       1.00800           0
      8500 TIP3     60       TIP3     H2       HT       0.417000       1.00800           0
      8501 TIP3     61       TIP3     OH2      OT      -0.834000       15.9994           0
      8502 TIP3     61       TIP3     H1       HT       0.417000       1.00800           0
      8503 TIP3     61       TIP3     H2       HT       0.417000       1.00800           0
      8504 TIP3     62       TIP3     OH2      OT      -0.834000       15.9994           0
      8505 TIP3     62       TIP3     H1       HT       0.417000       1.00800           0
      8506 TIP3     62       TIP3     H2       HT       0.417000       1.00800           0
      8507 TIP3     63       TIP3     OH2      OT      -0.834000       15.9994           0
      8508 TIP3     63       TIP3     H1       HT       0.417000       1.00800           0
      8509 TIP3     63       TIP3     H2       HT       0.417000       1.00800           0
      8510 TIP3     64       TIP3     OH2      OT      -0.834000       15.9994           0
      8511 TIP3     64       TIP3     H1       HT       0.417000       1.00800           0
      8512 TIP3     64       TIP3     H2       HT       0.417000       1.00800           0
      8513 TIP3     65       TIP3     OH2      OT      -0.834000       15.9994           0
      8514 TIP3     65       TIP3     H1       HT       0.417000       1.00800           0
      8515 TIP3     65       TIP3     H2       HT       0.417000       1.00800           0
      8516 TIP3     66       TIP3     OH2      OT      -0.834000       15.9994           0
      8517 TIP3     66       TIP3     H1       HT       0.417000       1.00800           0
      8518 TIP3     66       TIP3     H2       HT       0.417000       1.00800           0
      8519 TIP3     67       TIP3     OH2      OT      -0.834000       15.9994           0
      8520 TIP3     67       TIP3     H1       HT       0.417000       1.00800           0
      8521 TIP3     67       TIP3     H2       HT       0.417000       1.00800           0
      8522 TIP3     68       TIP3     OH2      OT      -0.834000       15.9994           0
      8523 TIP3     68       TIP3     H1       HT       0.417000       1.00800           0
      8524 TIP3     68       TIP3     H2       HT       0.417000       1.00800           0
      8525 TIP3     69       TIP3     OH2      OT      -0.834000       15.9994           0
      8526 TIP3     69       TIP3     H1       HT       0.417000       1.00800           0
      8527 TIP3     69       TIP3     H2       HT       0.417000       1.00800           0
      8528 TIP3     70       TIP3     OH2      OT      -0.834000       15.9994           0
      8529 TIP3     70       TIP3     H1       HT       0.417000       1.00800           0
      8530 TIP3     70       TIP3     H2       HT       0.417000       1.00800           0
      8531 TIP3     71       TIP3     OH2      OT      -0.834000       15.9994           0
      8532 TIP3     71       TIP3     H1       HT       0.417000       1.00800           0
      8533 TIP3     71       TIP3     H2       HT       0.417000       1.00800           0
      8534 TIP3     72       TIP3     OH2      OT      -0.834000       15.9994           0
      8535 TIP3     72       TIP3     H1       HT       0.417000       1.00800           0
      8536 TIP3     72       TIP3     H2       HT       0.417000       1.00800           0
      8537 TIP3     73       TIP3     OH2      OT      -0.834000       15.9994           0
      8538 TIP3     73       TIP3     H1       HT       0.417000       1.00800           0
      8539 TIP3     73       TIP3     H2       HT       0.417000       1.00800           0
      8540 TIP3     74       TIP3     OH2      OT      -0.834000       15.9994           0
      8541 TIP3     74       TIP3     H1       HT       0.417000       1.00800           0
      8542 TIP3     74       TIP3     H2       HT       0.417000       1.00800           0
      8543 TIP3     75       TIP3     OH2      OT      -0.834000       15.9994           0
      8544 TIP3     75       TIP3     H1       HT       0.417000       1.00800           0
      8545 TIP3     75       TIP3     H2       HT       0.417000       1.00800           0
      8546 TIP3     76       TIP3     OH2      OT      -0.834000       15.9994           0
      8547 TIP3     76       TIP3     H1       HT       0.417000       1.00800           0
      8548 TIP3     76       TIP3     H2       HT       0.417000       1.00800           0
      8549 TIP3     77       TIP3     OH2      OT      -0.834000       15.9994           0
      8550 TIP3     77       TIP3     H1       HT       0.417000       1.00800           0
      8551 TIP3     77       TIP3     H2       HT       0.417000       1.00800           0
      8552 TIP3     78       TIP3     OH2      OT      -0.834000       15.9994           0
      8553 TIP3     78       TIP3     H1       HT       0.417000       1.00800           0
      8554 TIP3     78       TIP3     H2       HT       0.417000       1.00800           0
      8555 TIP3     79       TIP3     OH2      OT      -0.834000       15.9994           0
      8556 TIP3     79       TIP3     H1       HT       0.417000       1.00800           0
      8557 TIP3     79       TIP3     H2       HT       0.417000       1.00800           0
      8558 TIP3     80       TIP3     OH2      OT      -0.834000       15.9994           0
      8559 TIP3     80       TIP3     H1       HT       0.417000       1.00800           0
      8560 TIP3     80       TIP3     H2       HT       0.417000       1.00800           0
      8561 TIP3     81       TIP3     OH2      OT      -0.834000       15.9994           0
      8562 TIP3     81       TIP3     H1       HT       0.417000       1.00800           0
      8563 TIP3     81       TIP3     H2       HT       0.417000       1.00800           0
      8564 TIP3     82       TIP3     OH2      OT      -0.834000       15.9994           0
      8565 TIP3     82       TIP3     H1       HT       0.417000       1.00800           0
      8566 TIP3     82       TIP3     H2       HT       0.417000       1.00800           0
      8567 TIP3     83       TIP3     OH2      OT      -0.834000       15.9994           0
      8568 TIP3     83       TIP3     H1       HT       0.417000       1.00800           0
      8569 TIP3     83       TIP3     H2       HT       0.417000       1.00800           0
      8570 TIP3     84       TIP3     OH2      OT      -0.834000       15.9994           0
      8571 TIP3     84       TIP3     H1       HT       0.417000       1.00800           0
      8572 TIP3     84       TIP3     H2       HT       0.417000       1.00800           0
      8573 TIP3     85       TIP3     OH2      OT      -0.834000       15.9994           0
      8574 TIP3     85       TIP3     H1       HT       0.417000       1.00800           0
      8575 TIP3     85       TIP3     H2       HT       0.417000       1.00800           0
      8576 TIP3     86       TIP3     OH2      OT      -0.834000       15.9994           0
      8577 TIP3     86       TIP3     H1       HT       0.417000       1.00800           0
      8578 TIP3     86       TIP3     H2       HT       0.417000       1.00800           0
      8579 TIP3     87       TIP3     OH2      OT      -0.834000       15.9994           0
      8580 TIP3     87       TIP3     H1       HT       0.417000       1.00800           0
      8581 TIP3     87       TIP3     H2       HT       0.417000       1.00800           0
      8582 TIP3     88       TIP3     OH2      OT      -0.834000       15.9994           0
      8583 TIP3     88       TIP3     H1       HT       0.417000       1.00800           0
      8584 TIP3     88       TIP3     H2       HT       0.417000       1.00800           0
      8585 TIP3     89       TIP3     OH2      OT      -0.834000       15.9994           0
      8586 TIP3     89       TIP3     H1       HT       0.417000       1.00800           0
      8587 TIP3     89       TIP3     H2       HT       0.417000       1.00800           0
      8588 TIP3     90       TIP3     OH2      OT      -0.834000       15.9994           0
      8589 TIP3     90       TIP3     H1       HT       0.417000       1.00800           0
      8590 TIP3     90       TIP3     H2       HT       0.417000       1.00800           0
      8591 TIP3     91       TIP3     OH2      OT      -0.834000       15.9994           0
      8592 TIP3     91       TIP3     H1       HT       0.417000       1.00800           0
      8593 TIP3     91       TIP3     H2       HT       0.417000       1.00800           0
      8594 TIP3     92       TIP3     OH2      OT      -0.834000       15.9994           0
      8595 TIP3     92       TIP3     H1       HT       0.417000       1.00800           0
      8596 TIP3     92       TIP3     H2       HT       0.417000       1.00800           0
      8597 TIP3     93       TIP3     OH2      OT      -0.834000       15.9994           0
      8598 TIP3     93       TIP3     H1       HT       0.417000       1.00800           0
      8599 TIP3     93       TIP3     H2       HT       0.417000       1.00800           0
      8600 TIP3     94       TIP3     OH2      OT      -0.834000       15.9994           0
      8601 TIP3     94       TIP3     H1       HT       0.417000       1.00800           0
      8602 TIP3     94       TIP3     H2       HT       0.417000       1.00800           0
      8603 TIP3     95       TIP3     OH2      OT      -0.834000       15.9994           0
      8604 TIP3     95       TIP3     H1       HT       0.417000       1.00800           0
      8605 TIP3     95       TIP3     H2       HT       0.417000       1.00800           0
      8606 TIP3     96       TIP3     OH2      OT      -0.834000       15.9994           0
      8607 TIP3     96       TIP3     H1       HT       0.417000       1.00800           0
      8608 TIP3     96       TIP3     H2       HT       0.417000       1.00800           0
      8609 TIP3     97       TIP3     OH2      OT      -0.834000       15.9994           0
      8610 TIP3     97       TIP3     H1       HT       0.417000       1.00800           0
      8611 TIP3     97       TIP3     H2       HT       0.417000       1.00800           0
      8612 TIP3     98       TIP3     OH2      OT      -0.834000       15.9994           0
      8613 TIP3     98       TIP3     H1       HT       0.417000       1.00800           0
      8614 TIP3     98       TIP3     H2       HT       0.417000       1.00800           0
      8615 TIP3     99       TIP3     OH2      OT      -0.834000       15.9994           0
      8616 TIP3     99       TIP3     H1       HT       0.417000       1.00800           0
      8617 TIP3     99       TIP3     H2       HT       0.417000       1.00800           0
      8618 TIP3     100      TIP3     OH2      OT      -0.834000       15.9994           0
      8619 TIP3     100      TIP3     H1       HT       0.417000       1.00800           0
      8620 TIP3     100      TIP3     H2       HT       0.417000       1.00800           0
      8621 TIP3     101      TIP3     OH2      OT      -0.834000       15.9994           0
      8622 TIP3     101      TIP3     H1       HT       0.417000       1.00800           0
      8623 TIP3     101      TIP3     H2       HT       0.417000       1.00800           0
      8624 TIP3     102      TIP3     OH2      OT      -0.834000       15.9994           0
      8625 TIP3     102      TIP3     H1       HT       0.417000       1.00800           0
      8626 TIP3     102      TIP3     H2       HT       0.417000       1.00800           0
      8627 TIP3     103      TIP3     OH2      OT      -0.834000       15.9994           0
      8628 TIP3     103      TIP3     H1       HT       0.417000       1.00800           0
      8629 TIP3     103      TIP3     H2       HT       0.417000       1.00800           0
      8630 TIP3     104      TIP3     OH2      OT      -0.834000       15.9994           0
      8631 TIP3     104      TIP3     H1       HT       0.417000       1.00800           0
      8632 TIP3     104      TIP3     H2       HT       0.417000       1.00800           0
      8633 TIP3     105      TIP3     OH2      OT      -0.834000       15.9994           0
      8634 TIP3     105      TIP3     H1       HT       0.417000       1.00800           0
      8635 TIP3     105      TIP3     H2       HT       0.417000       1.00800           0
      8636 TIP3     106      TIP3     OH2      OT      -0.834000       15.9994           0
      8637 TIP3     106      TIP3     H1       HT       0.417000       1.00800           0
      8638 TIP3     106      TIP3     H2       HT       0.417000       1.00800           0
      8639 TIP3     107      TIP3     OH2      OT      -0.834000       15.9994           0
      8640 TIP3     107      TIP3     H1       HT       0.417000       1.00800           0
      8641 TIP3     107      TIP3     H2       HT       0.417000       1.00800           0
      8642 TIP3     108      TIP3     OH2      OT      -0.834000       15.9994           0
      8643 TIP3     108      TIP3     H1       HT       0.417000       1.00800           0
      8644 TIP3     108      TIP3     H2       HT       0.417000       1.00800           0
      8645 TIP3     109      TIP3     OH2      OT      -0.834000       15.9994           0
      8646 TIP3     109      TIP3     H1       HT       0.417000       1.00800           0
      8647 TIP3     109      TIP3     H2       HT       0.417000       1.00800           0
      8648 TIP3     110      TIP3     OH2      OT      -0.834000       15.9994           0
      8649 TIP3     110      TIP3     H1       HT       0.417000       1.00800           0
      8650 TIP3     110      TIP3     H2       HT       0.417000       1.00800           0
      8651 TIP3     111      TIP3     OH2      OT      -0.834000       15.9994           0
      8652 TIP3     111      TIP3     H1       HT       0.417000       1.00800           0
      8653 TIP3     111      TIP3     H2       HT       0.417000       1.00800           0
      8654 TIP3     112      TIP3     OH2      OT      -0.834000       15.9994           0
      8655 TIP3     112      TIP3     H1       HT       0.417000       1.00800           0
      8656 TIP3     112      TIP3     H2       HT       0.417000       1.00800           0
      8657 TIP3     113      TIP3     OH2      OT      -0.834000       15.9994           0
      8658 TIP3     113      TIP3     H1       HT       0.417000       1.00800           0
      8659 TIP3     113      TIP3     H2       HT       0.417000       1.00800           0
      8660 TIP3     114      TIP3     OH2      OT      -0.834000       15.9994           0
      8661 TIP3     114      TIP3     H1       HT       0.417000       1.00800           0
      8662 TIP3     114      TIP3     H2       HT       0.417000       1.00800           0
      8663 TIP3     115      TIP3     OH2      OT      -0.834000       15.9994           0
      8664 TIP3     115      TIP3     H1       HT       0.417000       1.00800           0
      8665 TIP3     115      TIP3     H2       HT       0.417000       1.00800           0
      8666 TIP3     116      TIP3     OH2      OT      -0.834000       15.9994           0
      8667 TIP3     116      TIP3     H1       HT       0.417000       1.00800           0
      8668 TIP3     116      TIP3     H2       HT       0.417000       1.00800           0
      8669 TIP3     117      TIP3     OH2      OT      -0.834000       15.9994           0
      8670 TIP3     117      TIP3     H1       HT       0.417000       1.00800           0
      8671 TIP3     117      TIP3     H2       HT       0.417000       1.00800           0
      8672 TIP3     118      TIP3     OH2      OT      -0.834000       15.9994           0
      8673 TIP3     118      TIP3     H1       HT       0.417000       1.00800           0
      8674 TIP3     118      TIP3     H2       HT       0.417000       1.00800           0
      8675 TIP3     119      TIP3     OH2      OT      -0.834000       15.9994           0
      8676 TIP3     119      TIP3     H1       HT       0.417000       1.00800           0
      8677 TIP3     119      TIP3     H2       HT       0.417000       1.00800           0
      8678 TIP3     120      TIP3     OH2      OT      -0.834000       15.9994           0
      8679 TIP3     120      TIP3     H1       HT       0.417000       1.00800           0
      8680 TIP3     120      TIP3     H2       HT       0.417000       1.00800           0
      8681 TIP3     121      TIP3     OH2      OT      -0.834000       15.9994           0
      8682 TIP3     121      TIP3     H1       HT       0.417000       1.00800           0
      8683 TIP3     121      TIP3     H2       HT       0.417000       1.00800           0
      8684 TIP3     122      TIP3     OH2      OT      -0.834000       15.9994           0
      8685 TIP3     122      TIP3     H1       HT       0.417000       1.00800           0
      8686 TIP3     122      TIP3     H2       HT       0.417000       1.00800           0
      8687 TIP3     123      TIP3     OH2      OT      -0.834000       15.9994           0
      8688 TIP3     123      TIP3     H1       HT       0.417000       1.00800           0
      8689 TIP3     123      TIP3     H2       HT       0.417000       1.00800           0
      8690 TIP3     124      TIP3     OH2      OT      -0.834000       15.9994           0
      8691 TIP3     124      TIP3     H1       HT       0.417000       1.00800           0
      8692 TIP3     124      TIP3     H2       HT       0.417000       1.00800           0
      8693 TIP3     125      TIP3     OH2      OT      -0.834000       15.9994           0
      8694 TIP3     125      TIP3     H1       HT       0.417000       1.00800           0
      8695 TIP3     125      TIP3     H2       HT       0.417000       1.00800           0
      8696 TIP3     126      TIP3     OH2      OT      -0.834000       15.9994           0
      8697 TIP3     126      TIP3     H1       HT       0.417000       1.00800           0
      8698 TIP3     126      TIP3     H2       HT       0.417000       1.00800           0
      8699 TIP3     127      TIP3     OH2      OT      -0.834000       15.9994           0
      8700 TIP3     127      TIP3     H1       HT       0.417000       1.00800           0
      8701 TIP3     127      TIP3     H2       HT       0.417000       1.00800           0
      8702 TIP3     128      TIP3     OH2      OT      -0.834000       15.9994           0
      8703 TIP3     128      TIP3     H1       HT       0.417000       1.00800           0
      8704 TIP3     128      TIP3     H2       HT       0.417000       1.00800           0
      8705 TIP3     129      TIP3     OH2      OT      -0.834000       15.9994           0
      8706 TIP3     129      TIP3     H1       HT       0.417000       1.00800           0
      8707 TIP3     129      TIP3     H2       HT       0.417000       1.00800           0
      8708 TIP3     130      TIP3     OH2      OT      -0.834000       15.9994           0
      8709 TIP3     130      TIP3     H1       HT       0.417000       1.00800           0
      8710 TIP3     130      TIP3     H2       HT       0.417000       1.00800           0
      8711 TIP3     131      TIP3     OH2      OT      -0.834000       15.9994           0
      8712 TIP3     131      TIP3     H1       HT       0.417000       1.00800           0
      8713 TIP3     131      TIP3     H2       HT       0.417000       1.00800           0
      8714 TIP3     132      TIP3     OH2      OT      -0.834000       15.9994           0
      8715 TIP3     132      TIP3     H1       HT       0.417000       1.00800           0
      8716 TIP3     132      TIP3     H2       HT       0.417000       1.00800           0
      8717 TIP3     133      TIP3     OH2      OT      -0.834000       15.9994           0
      8718 TIP3     133      TIP3     H1       HT       0.417000       1.00800           0
      8719 TIP3     133      TIP3     H2       HT       0.417000       1.00800           0
      8720 TIP3     134      TIP3     OH2      OT      -0.834000       15.9994           0
      8721 TIP3     134      TIP3     H1       HT       0.417000       1.00800           0
      8722 TIP3     134      TIP3     H2       HT       0.417000       1.00800           0
      8723 TIP3     135      TIP3     OH2      OT      -0.834000       15.9994           0
      8724 TIP3     135      TIP3     H1       HT       0.417000       1.00800           0
      8725 TIP3     135      TIP3     H2       HT       0.417000       1.00800           0
      8726 TIP3     136      TIP3     OH2      OT      -0.834000       15.9994           0
      8727 TIP3     136      TIP3     H1       HT       0.417000       1.00800           0
      8728 TIP3     136      TIP3     H2       HT       0.417000       1.00800           0
      8729 TIP3     137      TIP3     OH2      OT      -0.834000       15.9994           0
      8730 TIP3     137      TIP3     H1       HT       0.417000       1.00800           0
      8731 TIP3     137      TIP3     H2       HT       0.417000       1.00800           0
      8732 TIP3     138      TIP3     OH2      OT      -0.834000       15.9994           0
      8733 TIP3     138      TIP3     H1       HT       0.417000       1.00800           0
      8734 TIP3     138      TIP3     H2       HT       0.417000       1.00800           0
      8735 TIP3     139      TIP3     OH2      OT      -0.834000       15.9994           0
      8736 TIP3     139      TIP3     H1       HT       0.417000       1.00800           0
      8737 TIP3     139      TIP3     H2       HT       0.417000       1.00800           0
      8738 TIP3     140      TIP3     OH2      OT      -0.834000       15.9994           0
      8739 TIP3     140      TIP3     H1       HT       0.417000       1.00800           0
      8740 TIP3     140      TIP3     H2       HT       0.417000       1.00800           0
      8741 TIP3     141      TIP3     OH2      OT      -0.834000       15.9994           0
      8742 TIP3     141      TIP3     H1       HT       0.417000       1.00800           0
      8743 TIP3     141      TIP3     H2       HT       0.417000       1.00800           0
      8744 TIP3     142      TIP3     OH2      OT      -0.834000       15.9994           0
      8745 TIP3     142      TIP3     H1       HT       0.417000       1.00800           0
      8746 TIP3     142      TIP3     H2       HT       0.417000       1.00800           0
      8747 TIP3     143      TIP3     OH2      OT      -0.834000       15.9994           0
      8748 TIP3     143      TIP3     H1       HT       0.417000       1.00800           0
      8749 TIP3     143      TIP3     H2       HT       0.417000       1.00800           0
      8750 TIP3     144      TIP3     OH2      OT      -0.834000       15.9994           0
      8751 TIP3     144      TIP3     H1       HT       0.417000       1.00800           0
      8752 TIP3     144      TIP3     H2       HT       0.417000       1.00800           0
      8753 TIP3     145      TIP3     OH2      OT      -0.834000       15.9994           0
      8754 TIP3     145      TIP3     H1       HT       0.417000       1.00800           0
      8755 TIP3     145      TIP3     H2       HT       0.417000       1.00800           0
      8756 TIP3     146      TIP3     OH2      OT      -0.834000       15.9994           0
      8757 TIP3     146      TIP3     H1       HT       0.417000       1.00800           0
      8758 TIP3     146      TIP3     H2       HT       0.417000       1.00800           0
      8759 TIP3     147      TIP3     OH2      OT      -0.834000       15.9994           0
      8760 TIP3     147      TIP3     H1       HT       0.417000       1.00800           0
      8761 TIP3     147      TIP3     H2       HT       0.417000       1.00800           0
      8762 TIP3     148      TIP3     OH2      OT      -0.834000       15.9994           0
      8763 TIP3     148      TIP3     H1       HT       0.417000       1.00800           0
      8764 TIP3     148      TIP3     H2       HT       0.417000       1.00800           0
      8765 TIP3     149      TIP3     OH2      OT      -0.834000       15.9994           0
      8766 TIP3     149      TIP3     H1       HT       0.417000       1.00800           0
      8767 TIP3     149      TIP3     H2       HT       0.417000       1.00800           0
      8768 TIP3     150      TIP3     OH2      OT      -0.834000       15.9994           0
      8769 TIP3     150      TIP3     H1       HT       0.417000       1.00800           0
      8770 TIP3     150      TIP3     H2       HT       0.417000       1.00800           0
      8771 TIP3     151      TIP3     OH2      OT      -0.834000       15.9994           0
      8772 TIP3     151      TIP3     H1       HT       0.417000       1.00800           0
      8773 TIP3     151      TIP3     H2       HT       0.417000       1.00800           0
      8774 TIP3     152      TIP3     OH2      OT      -0.834000       15.9994           0
      8775 TIP3     152      TIP3     H1       HT       0.417000       1.00800           0
      8776 TIP3     152      TIP3     H2       HT       0.417000       1.00800           0
      8777 TIP3     153      TIP3     OH2      OT      -0.834000       15.9994           0
      8778 TIP3     153      TIP3     H1       HT       0.417000       1.00800           0
      8779 TIP3     153      TIP3     H2       HT       0.417000       1.00800           0
      8780 TIP3     154      TIP3     OH2      OT      -0.834000       15.9994           0
      8781 TIP3     154      TIP3     H1       HT       0.417000       1.00800           0
      8782 TIP3     154      TIP3     H2       HT       0.417000       1.00800           0
      8783 TIP3     155      TIP3     OH2      OT      -0.834000       15.9994           0
      8784 TIP3     155      TIP3     H1       HT       0.417000       1.00800           0
      8785 TIP3     155      TIP3     H2       HT       0.417000       1.00800           0
      8786 TIP3     156      TIP3     OH2      OT      -0.834000       15.9994           0
      8787 TIP3     156      TIP3     H1       HT       0.417000       1.00800           0
      8788 TIP3     156      TIP3     H2       HT       0.417000       1.00800           0
      8789 TIP3     157      TIP3     OH2      OT      -0.834000       15.9994           0
      8790 TIP3     157      TIP3     H1       HT       0.417000       1.00800           0
      8791 TIP3     157      TIP3     H2       HT       0.417000       1.00800           0
      8792 TIP3     158      TIP3     OH2      OT      -0.834000       15.9994           0
      8793 TIP3     158      TIP3     H1       HT       0.417000       1.00800           0
      8794 TIP3     158      TIP3     H2       HT       0.417000       1.00800           0
      8795 TIP3     159      TIP3     OH2      OT      -0.834000       15.9994           0
      8796 TIP3     159      TIP3     H1       HT       0.417000       1.00800           0
      8797 TIP3     159      TIP3     H2       HT       0.417000       1.00800           0
      8798 TIP3     160      TIP3     OH2      OT      -0.834000       15.9994           0
      8799 TIP3     160      TIP3     H1       HT       0.417000       1.00800           0
      8800 TIP3     160      TIP3     H2       HT       0.417000       1.00800           0
      8801 TIP3     161      TIP3     OH2      OT      -0.834000       15.9994           0
      8802 TIP3     161      TIP3     H1       HT       0.417000       1.00800           0
      8803 TIP3     161      TIP3     H2       HT       0.417000       1.00800           0
      8804 TIP3     162      TIP3     OH2      OT      -0.834000       15.9994           0
      8805 TIP3     162      TIP3     H1       HT       0.417000       1.00800           0
      8806 TIP3     162      TIP3     H2       HT       0.417000       1.00800           0
      8807 TIP3     163      TIP3     OH2      OT      -0.834000       15.9994           0
      8808 TIP3     163      TIP3     H1       HT       0.417000       1.00800           0
      8809 TIP3     163      TIP3     H2       HT       0.417000       1.00800           0
      8810 TIP3     164      TIP3     OH2      OT      -0.834000       15.9994           0
      8811 TIP3     164      TIP3     H1       HT       0.417000       1.00800           0
      8812 TIP3     164      TIP3     H2       HT       0.417000       1.00800           0
      8813 TIP3     165      TIP3     OH2      OT      -0.834000       15.9994           0
      8814 TIP3     165      TIP3     H1       HT       0.417000       1.00800           0
      8815 TIP3     165      TIP3     H2       HT       0.417000       1.00800           0
      8816 TIP3     166      TIP3     OH2      OT      -0.834000       15.9994           0
      8817 TIP3     166      TIP3     H1       HT       0.417000       1.00800           0
      8818 TIP3     166      TIP3     H2       HT       0.417000       1.00800           0
      8819 TIP3     167      TIP3     OH2      OT      -0.834000       15.9994           0
      8820 TIP3     167      TIP3     H1       HT       0.417000       1.00800           0
      8821 TIP3     167      TIP3     H2       HT       0.417000       1.00800           0
      8822 TIP3     168      TIP3     OH2      OT      -0.834000       15.9994           0
      8823 TIP3     168      TIP3     H1       HT       0.417000       1.00800           0
      8824 TIP3     168      TIP3     H2       HT       0.417000       1.00800           0
      8825 TIP3     169      TIP3     OH2      OT      -0.834000       15.9994           0
      8826 TIP3     169      TIP3     H1       HT       0.417000       1.00800           0
      8827 TIP3     169      TIP3     H2       HT       0.417000       1.00800           0
      8828 TIP3     170      TIP3     OH2      OT      -0.834000       15.9994           0
      8829 TIP3     170      TIP3     H1       HT       0.417000       1.00800           0
      8830 TIP3     170      TIP3     H2       HT       0.417000       1.00800           0
      8831 TIP3     171      TIP3     OH2      OT      -0.834000       15.9994           0
      8832 TIP3     171      TIP3     H1       HT       0.417000       1.00800           0
      8833 TIP3     171      TIP3     H2       HT       0.417000       1.00800           0
      8834 TIP3     172      TIP3     OH2      OT      -0.834000       15.9994           0
      8835 TIP3     172      TIP3     H1       HT       0.417000       1.00800           0
      8836 TIP3     172      TIP3     H2       HT       0.417000       1.00800           0
      8837 TIP3     173      TIP3     OH2      OT      -0.834000       15.9994           0
      8838 TIP3     173      TIP3     H1       HT       0.417000       1.00800           0
      8839 TIP3     173      TIP3     H2       HT       0.417000       1.00800           0
      8840 TIP3     174      TIP3     OH2      OT      -0.834000       15.9994           0
      8841 TIP3     174      TIP3     H1       HT       0.417000       1.00800           0
      8842 TIP3     174      TIP3     H2       HT       0.417000       1.00800           0
      8843 TIP3     175      TIP3     OH2      OT      -0.834000       15.9994           0
      8844 TIP3     175      TIP3     H1       HT       0.417000       1.00800           0
      8845 TIP3     175      TIP3     H2       HT       0.417000       1.00800           0
      8846 TIP3     176      TIP3     OH2      OT      -0.834000       15.9994           0
      8847 TIP3     176      TIP3     H1       HT       0.417000       1.00800           0
      8848 TIP3     176      TIP3     H2       HT       0.417000       1.00800           0
      8849 TIP3     177      TIP3     OH2      OT      -0.834000       15.9994           0
      8850 TIP3     177      TIP3     H1       HT       0.417000       1.00800           0
      8851 TIP3     177      TIP3     H2       HT       0.417000       1.00800           0
      8852 TIP3     178      TIP3     OH2      OT      -0.834000       15.9994           0
      8853 TIP3     178      TIP3     H1       HT       0.417000       1.00800           0
      8854 TIP3     178      TIP3     H2       HT       0.417000       1.00800           0
      8855 TIP3     179      TIP3     OH2      OT      -0.834000       15.9994           0
      8856 TIP3     179      TIP3     H1       HT       0.417000       1.00800           0
      8857 TIP3     179      TIP3     H2       HT       0.417000       1.00800           0
      8858 TIP3     180      TIP3     OH2      OT      -0.834000       15.9994           0
      8859 TIP3     180      TIP3     H1       HT       0.417000       1.00800           0
      8860 TIP3     180      TIP3     H2       HT       0.417000       1.00800           0
      8861 TIP3     181      TIP3     OH2      OT      -0.834000       15.9994           0
      8862 TIP3     181      TIP3     H1       HT       0.417000       1.00800           0
      8863 TIP3     181      TIP3     H2       HT       0.417000       1.00800           0
      8864 TIP3     182      TIP3     OH2      OT      -0.834000       15.9994           0
      8865 TIP3     182      TIP3     H1       HT       0.417000       1.00800           0
      8866 TIP3     182      TIP3     H2       HT       0.417000       1.00800           0
      8867 TIP3     183      TIP3     OH2      OT      -0.834000       15.9994           0
      8868 TIP3     183      TIP3     H1       HT       0.417000       1.00800           0
      8869 TIP3     183      TIP3     H2       HT       0.417000       1.00800           0
      8870 TIP3     184      TIP3     OH2      OT      -0.834000       15.9994           0
      8871 TIP3     184      TIP3     H1       HT       0.417000       1.00800           0
      8872 TIP3     184      TIP3     H2       HT       0.417000       1.00800           0
      8873 TIP3     185      TIP3     OH2      OT      -0.834000       15.9994           0
      8874 TIP3     185      TIP3     H1       HT       0.417000       1.00800           0
      8875 TIP3     185      TIP3     H2       HT       0.417000       1.00800           0
      8876 TIP3     186      TIP3     OH2      OT      -0.834000       15.9994           0
      8877 TIP3     186      TIP3     H1       HT       0.417000       1.00800           0
      8878 TIP3     186      TIP3     H2       HT       0.417000       1.00800           0
      8879 TIP3     187      TIP3     OH2      OT      -0.834000       15.9994           0
      8880 TIP3     187      TIP3     H1       HT       0.417000       1.00800           0
      8881 TIP3     187      TIP3     H2       HT       0.417000       1.00800           0
      8882 TIP3     188      TIP3     OH2      OT      -0.834000       15.9994           0
      8883 TIP3     188      TIP3     H1       HT       0.417000       1.00800           0
      8884 TIP3     188      TIP3     H2       HT       0.417000       1.00800           0
      8885 TIP3     189      TIP3     OH2      OT      -0.834000       15.9994           0
      8886 TIP3     189      TIP3     H1       HT       0.417000       1.00800           0
      8887 TIP3     189      TIP3     H2       HT       0.417000       1.00800           0
      8888 TIP3     190      TIP3     OH2      OT      -0.834000       15.9994           0
      8889 TIP3     190      TIP3     H1       HT       0.417000       1.00800           0
      8890 TIP3     190      TIP3     H2       HT       0.417000       1.00800           0
      8891 TIP3     191      TIP3     OH2      OT      -0.834000       15.9994           0
      8892 TIP3     191      TIP3     H1       HT       0.417000       1.00800           0
      8893 TIP3     191      TIP3     H2       HT       0.417000       1.00800           0
      8894 TIP3     192      TIP3     OH2      OT      -0.834000       15.9994           0
      8895 TIP3     192      TIP3     H1       HT       0.417000       1.00800           0
      8896 TIP3     192      TIP3     H2       HT       0.417000       1.00800           0
      8897 TIP3     193      TIP3     OH2      OT      -0.834000       15.9994           0
      8898 TIP3     193      TIP3     H1       HT       0.417000       1.00800           0
      8899 TIP3     193      TIP3     H2       HT       0.417000       1.00800           0
      8900 TIP3     194      TIP3     OH2      OT      -0.834000       15.9994           0
      8901 TIP3     194      TIP3     H1       HT       0.417000       1.00800           0
      8902 TIP3     194      TIP3     H2       HT       0.417000       1.00800           0
      8903 TIP3     195      TIP3     OH2      OT      -0.834000       15.9994           0
      8904 TIP3     195      TIP3     H1       HT       0.417000       1.00800           0
      8905 TIP3     195      TIP3     H2       HT       0.417000       1.00800           0
      8906 TIP3     196      TIP3     OH2      OT      -0.834000       15.9994           0
      8907 TIP3     196      TIP3     H1       HT       0.417000       1.00800           0
      8908 TIP3     196      TIP3     H2       HT       0.417000       1.00800           0
      8909 TIP3     197      TIP3     OH2      OT      -0.834000       15.9994           0
      8910 TIP3     197      TIP3     H1       HT       0.417000       1.00800           0
      8911 TIP3     197      TIP3     H2       HT       0.417000       1.00800           0
      8912 TIP3     198      TIP3     OH2      OT      -0.834000       15.9994           0
      8913 TIP3     198      TIP3     H1       HT       0.417000       1.00800           0
      8914 TIP3     198      TIP3     H2       HT       0.417000       1.00800           0
      8915 TIP3     199      TIP3     OH2      OT      -0.834000       15.9994           0
      8916 TIP3     199      TIP3     H1       HT       0.417000       1.00800           0
      8917 TIP3     199      TIP3     H2       HT       0.417000       1.00800           0
      8918 TIP3     200      TIP3     OH2      OT      -0.834000       15.9994           0
      8919 TIP3     200      TIP3     H1       HT       0.417000       1.00800           0
      8920 TIP3     200      TIP3     H2       HT       0.417000       1.00800           0
      8921 TIP3     201      TIP3     OH2      OT      -0.834000       15.9994           0
      8922 TIP3     201      TIP3     H1       HT       0.417000       1.00800           0
      8923 TIP3     201      TIP3     H2       HT       0.417000       1.00800           0
      8924 TIP3     202      TIP3     OH2      OT      -0.834000       15.9994           0
      8925 TIP3     202      TIP3     H1       HT       0.417000       1.00800           0
      8926 TIP3     202      TIP3     H2       HT       0.417000       1.00800           0
      8927 TIP3     203      TIP3     OH2      OT      -0.834000       15.9994           0
      8928 TIP3     203      TIP3     H1       HT       0.417000       1.00800           0
      8929 TIP3     203      TIP3     H2       HT       0.417000       1.00800           0
      8930 TIP3     204      TIP3     OH2      OT      -0.834000       15.9994           0
      8931 TIP3     204      TIP3     H1       HT       0.417000       1.00800           0
      8932 TIP3     204      TIP3     H2       HT       0.417000       1.00800           0
      8933 TIP3     205      TIP3     OH2      OT      -0.834000       15.9994           0
      8934 TIP3     205      TIP3     H1       HT       0.417000       1.00800           0
      8935 TIP3     205      TIP3     H2       HT       0.417000       1.00800           0
      8936 TIP3     206      TIP3     OH2      OT      -0.834000       15.9994           0
      8937 TIP3     206      TIP3     H1       HT       0.417000       1.00800           0
      8938 TIP3     206      TIP3     H2       HT       0.417000       1.00800           0
      8939 TIP3     207      TIP3     OH2      OT      -0.834000       15.9994           0
      8940 TIP3     207      TIP3     H1       HT       0.417000       1.00800           0
      8941 TIP3     207      TIP3     H2       HT       0.417000       1.00800           0
      8942 TIP3     208      TIP3     OH2      OT      -0.834000       15.9994           0
      8943 TIP3     208      TIP3     H1       HT       0.417000       1.00800           0
      8944 TIP3     208      TIP3     H2       HT       0.417000       1.00800           0
      8945 TIP3     209      TIP3     OH2      OT      -0.834000       15.9994           0
      8946 TIP3     209      TIP3     H1       HT       0.417000       1.00800           0
      8947 TIP3     209      TIP3     H2       HT       0.417000       1.00800           0
      8948 TIP3     210      TIP3     OH2      OT      -0.834000       15.9994           0
      8949 TIP3     210      TIP3     H1       HT       0.417000       1.00800           0
      8950 TIP3     210      TIP3     H2       HT       0.417000       1.00800           0
      8951 TIP3     211      TIP3     OH2      OT      -0.834000       15.9994           0
      8952 TIP3     211      TIP3     H1       HT       0.417000       1.00800           0
      8953 TIP3     211      TIP3     H2       HT       0.417000       1.00800           0
      8954 TIP3     212      TIP3     OH2      OT      -0.834000       15.9994           0
      8955 TIP3     212      TIP3     H1       HT       0.417000       1.00800           0
      8956 TIP3     212      TIP3     H2       HT       0.417000       1.00800           0
      8957 TIP3     213      TIP3     OH2      OT      -0.834000       15.9994           0
      8958 TIP3     213      TIP3     H1       HT       0.417000       1.00800           0
      8959 TIP3     213      TIP3     H2       HT       0.417000       1.00800           0
      8960 TIP3     214      TIP3     OH2      OT      -0.834000       15.9994           0
      8961 TIP3     214      TIP3     H1       HT       0.417000       1.00800           0
      8962 TIP3     214      TIP3     H2       HT       0.417000       1.00800           0
      8963 TIP3     215      TIP3     OH2      OT      -0.834000       15.9994           0
      8964 TIP3     215      TIP3     H1       HT       0.417000       1.00800           0
      8965 TIP3     215      TIP3     H2       HT       0.417000       1.00800           0
      8966 TIP3     216      TIP3     OH2      OT      -0.834000       15.9994           0
      8967 TIP3     216      TIP3     H1       HT       0.417000       1.00800           0
      8968 TIP3     216      TIP3     H2       HT       0.417000       1.00800           0
      8969 TIP3     217      TIP3     OH2      OT      -0.834000       15.9994           0
      8970 TIP3     217      TIP3     H1       HT       0.417000       1.00800           0
      8971 TIP3     217      TIP3     H2       HT       0.417000       1.00800           0
      8972 TIP3     218      TIP3     OH2      OT      -0.834000       15.9994           0
      8973 TIP3     218      TIP3     H1       HT       0.417000       1.00800           0
      8974 TIP3     218      TIP3     H2       HT       0.417000       1.00800           0
      8975 TIP3     219      TIP3     OH2      OT      -0.834000       15.9994           0
      8976 TIP3     219      TIP3     H1       HT       0.417000       1.00800           0
      8977 TIP3     219      TIP3     H2       HT       0.417000       1.00800           0
      8978 TIP3     220      TIP3     OH2      OT      -0.834000       15.9994           0
      8979 TIP3     220      TIP3     H1       HT       0.417000       1.00800           0
      8980 TIP3     220      TIP3     H2       HT       0.417000       1.00800           0
      8981 TIP3     221      TIP3     OH2      OT      -0.834000       15.9994           0
      8982 TIP3     221      TIP3     H1       HT       0.417000       1.00800           0
      8983 TIP3     221      TIP3     H2       HT       0.417000       1.00800           0
      8984 TIP3     222      TIP3     OH2      OT      -0.834000       15.9994           0
      8985 TIP3     222      TIP3     H1       HT       0.417000       1.00800           0
      8986 TIP3     222      TIP3     H2       HT       0.417000       1.00800           0
      8987 TIP3     223      TIP3     OH2      OT      -0.834000       15.9994           0
      8988 TIP3     223      TIP3     H1       HT       0.417000       1.00800           0
      8989 TIP3     223      TIP3     H2       HT       0.417000       1.00800           0
      8990 TIP3     224      TIP3     OH2      OT      -0.834000       15.9994           0
      8991 TIP3     224      TIP3     H1       HT       0.417000       1.00800           0
      8992 TIP3     224      TIP3     H2       HT       0.417000       1.00800           0
      8993 TIP3     225      TIP3     OH2      OT      -0.834000       15.9994           0
      8994 TIP3     225      TIP3     H1       HT       0.417000       1.00800           0
      8995 TIP3     225      TIP3     H2       HT       0.417000       1.00800           0
      8996 TIP3     226      TIP3     OH2      OT      -0.834000       15.9994           0
      8997 TIP3     226      TIP3     H1       HT       0.417000       1.00800           0
      8998 TIP3     226      TIP3     H2       HT       0.417000       1.00800           0
      8999 TIP3     227      TIP3     OH2      OT      -0.834000       15.9994           0
      9000 TIP3     227      TIP3     H1       HT       0.417000       1.00800           0
      9001 TIP3     227      TIP3     H2       HT       0.417000       1.00800           0
      9002 TIP3     228      TIP3     OH2      OT      -0.834000       15.9994           0
      9003 TIP3     228      TIP3     H1       HT       0.417000       1.00800           0
      9004 TIP3     228      TIP3     H2       HT       0.417000       1.00800           0
      9005 TIP3     229      TIP3     OH2      OT      -0.834000       15.9994           0
      9006 TIP3     229      TIP3     H1       HT       0.417000       1.00800           0
      9007 TIP3     229      TIP3     H2       HT       0.417000       1.00800           0
      9008 TIP3     230      TIP3     OH2      OT      -0.834000       15.9994           0
      9009 TIP3     230      TIP3     H1       HT       0.417000       1.00800           0
      9010 TIP3     230      TIP3     H2       HT       0.417000       1.00800           0
      9011 TIP3     231      TIP3     OH2      OT      -0.834000       15.9994           0
      9012 TIP3     231      TIP3     H1       HT       0.417000       1.00800           0
      9013 TIP3     231      TIP3     H2       HT       0.417000       1.00800           0
      9014 TIP3     232      TIP3     OH2      OT      -0.834000       15.9994           0
      9015 TIP3     232      TIP3     H1       HT       0.417000       1.00800           0
      9016 TIP3     232      TIP3     H2       HT       0.417000       1.00800           0
      9017 TIP3     233      TIP3     OH2      OT      -0.834000       15.9994           0
      9018 TIP3     233      TIP3     H1       HT       0.417000       1.00800           0
      9019 TIP3     233      TIP3     H2       HT       0.417000       1.00800           0
      9020 TIP3     234      TIP3     OH2      OT      -0.834000       15.9994           0
      9021 TIP3     234      TIP3     H1       HT       0.417000       1.00800           0
      9022 TIP3     234      TIP3     H2       HT       0.417000       1.00800           0
      9023 TIP3     235      TIP3     OH2      OT      -0.834000       15.9994           0
      9024 TIP3     235      TIP3     H1       HT       0.417000       1.00800           0
      9025 TIP3     235      TIP3     H2       HT       0.417000       1.00800           0
      9026 TIP3     236      TIP3     OH2      OT      -0.834000       15.9994           0
      9027 TIP3     236      TIP3     H1       HT       0.417000       1.00800           0
      9028 TIP3     236      TIP3     H2       HT       0.417000       1.00800           0
      9029 TIP3     237      TIP3     OH2      OT      -0.834000       15.9994           0
      9030 TIP3     237      TIP3     H1       HT       0.417000       1.00800           0
      9031 TIP3     237      TIP3     H2       HT       0.417000       1.00800           0
      9032 TIP3     238      TIP3     OH2      OT      -0.834000       15.9994           0
      9033 TIP3     238      TIP3     H1       HT       0.417000       1.00800           0
      9034 TIP3     238      TIP3     H2       HT       0.417000       1.00800           0
      9035 TIP3     239      TIP3     OH2      OT      -0.834000       15.9994           0
      9036 TIP3     239      TIP3     H1       HT       0.417000       1.00800           0
      9037 TIP3     239      TIP3     H2       HT       0.417000       1.00800           0
      9038 TIP3     240      TIP3     OH2      OT      -0.834000       15.9994           0
      9039 TIP3     240      TIP3     H1       HT       0.417000       1.00800           0
      9040 TIP3     240      TIP3     H2       HT       0.417000       1.00800           0
      9041 TIP3     241      TIP3     OH2      OT      -0.834000       15.9994           0
      9042 TIP3     241      TIP3     H1       HT       0.417000       1.00800           0
      9043 TIP3     241      TIP3     H2       HT       0.417000       1.00800           0
      9044 TIP3     242      TIP3     OH2      OT      -0.834000       15.9994           0
      9045 TIP3     242      TIP3     H1       HT       0.417000       1.00800           0
      9046 TIP3     242      TIP3     H2       HT       0.417000       1.00800           0
      9047 TIP3     243      TIP3     OH2      OT      -0.834000       15.9994           0
      9048 TIP3     243      TIP3     H1       HT       0.417000       1.00800           0
      9049 TIP3     243      TIP3     H2       HT       0.417000       1.00800           0
      9050 TIP3     244      TIP3     OH2      OT      -0.834000       15.9994           0
      9051 TIP3     244      TIP3     H1       HT       0.417000       1.00800           0
      9052 TIP3     244      TIP3     H2       HT       0.417000       1.00800           0
      9053 TIP3     245      TIP3     OH2      OT      -0.834000       15.9994           0
      9054 TIP3     245      TIP3     H1       HT       0.417000       1.00800           0
      9055 TIP3     245      TIP3     H2       HT       0.417000       1.00800           0
      9056 TIP3     246      TIP3     OH2      OT      -0.834000       15.9994           0
      9057 TIP3     246      TIP3     H1       HT       0.417000       1.00800           0
      9058 TIP3     246      TIP3     H2       HT       0.417000       1.00800           0
      9059 TIP3     247      TIP3     OH2      OT      -0.834000       15.9994           0
      9060 TIP3     247      TIP3     H1       HT       0.417000       1.00800           0
      9061 TIP3     247      TIP3     H2       HT       0.417000       1.00800           0
      9062 TIP3     248      TIP3     OH2      OT      -0.834000       15.9994           0
      9063 TIP3     248      TIP3     H1       HT       0.417000       1.00800           0
      9064 TIP3     248      TIP3     H2       HT       0.417000       1.00800           0
      9065 TIP3     249      TIP3     OH2      OT      -0.834000       15.9994           0
      9066 TIP3     249      TIP3     H1       HT       0.417000       1.00800           0
      9067 TIP3     249      TIP3     H2       HT       0.417000       1.00800           0
      9068 TIP3     250      TIP3     OH2      OT      -0.834000       15.9994           0
      9069 TIP3     250      TIP3     H1       HT       0.417000       1.00800           0
      9070 TIP3     250      TIP3     H2       HT       0.417000       1.00800           0
      9071 TIP3     251      TIP3     OH2      OT      -0.834000       15.9994           0
      9072 TIP3     251      TIP3     H1       HT       0.417000       1.00800           0
      9073 TIP3     251      TIP3     H2       HT       0.417000       1.00800           0
      9074 TIP3     252      TIP3     OH2      OT      -0.834000       15.9994           0
      9075 TIP3     252      TIP3     H1       HT       0.417000       1.00800           0
      9076 TIP3     252      TIP3     H2       HT       0.417000       1.00800           0
      9077 TIP3     253      TIP3     OH2      OT      -0.834000       15.9994           0
      9078 TIP3     253      TIP3     H1       HT       0.417000       1.00800           0
      9079 TIP3     253      TIP3     H2       HT       0.417000       1.00800           0
      9080 TIP3     254      TIP3     OH2      OT      -0.834000       15.9994           0
      9081 TIP3     254      TIP3     H1       HT       0.417000       1.00800           0
      9082 TIP3     254      TIP3     H2       HT       0.417000       1.00800           0
      9083 TIP3     255      TIP3     OH2      OT      -0.834000       15.9994           0
      9084 TIP3     255      TIP3     H1       HT       0.417000       1.00800           0
      9085 TIP3     255      TIP3     H2       HT       0.417000       1.00800           0
      9086 TIP3     256      TIP3     OH2      OT      -0.834000       15.9994           0
      9087 TIP3     256      TIP3     H1       HT       0.417000       1.00800           0
      9088 TIP3     256      TIP3     H2       HT       0.417000       1.00800           0
      9089 TIP3     257      TIP3     OH2      OT      -0.834000       15.9994           0
      9090 TIP3     257      TIP3     H1       HT       0.417000       1.00800           0
      9091 TIP3     257      TIP3     H2       HT       0.417000       1.00800           0
      9092 TIP3     258      TIP3     OH2      OT      -0.834000       15.9994           0
      9093 TIP3     258      TIP3     H1       HT       0.417000       1.00800           0
      9094 TIP3     258      TIP3     H2       HT       0.417000       1.00800           0
      9095 TIP3     259      TIP3     OH2      OT      -0.834000       15.9994           0
      9096 TIP3     259      TIP3     H1       HT       0.417000       1.00800           0
      9097 TIP3     259      TIP3     H2       HT       0.417000       1.00800           0
      9098 TIP3     260      TIP3     OH2      OT      -0.834000       15.9994           0
      9099 TIP3     260      TIP3     H1       HT       0.417000       1.00800           0
      9100 TIP3     260      TIP3     H2       HT       0.417000       1.00800           0
      9101 TIP3     261      TIP3     OH2      OT      -0.834000       15.9994           0
      9102 TIP3     261      TIP3     H1       HT       0.417000       1.00800           0
      9103 TIP3     261      TIP3     H2       HT       0.417000       1.00800           0
      9104 TIP3     262      TIP3     OH2      OT      -0.834000       15.9994           0
      9105 TIP3     262      TIP3     H1       HT       0.417000       1.00800           0
      9106 TIP3     262      TIP3     H2       HT       0.417000       1.00800           0
      9107 TIP3     263      TIP3     OH2      OT      -0.834000       15.9994           0
      9108 TIP3     263      TIP3     H1       HT       0.417000       1.00800           0
      9109 TIP3     263      TIP3     H2       HT       0.417000       1.00800           0
      9110 TIP3     264      TIP3     OH2      OT      -0.834000       15.9994           0
      9111 TIP3     264      TIP3     H1       HT       0.417000       1.00800           0
      9112 TIP3     264      TIP3     H2       HT       0.417000       1.00800           0
      9113 TIP3     265      TIP3     OH2      OT      -0.834000       15.9994           0
      9114 TIP3     265      TIP3     H1       HT       0.417000       1.00800           0
      9115 TIP3     265      TIP3     H2       HT       0.417000       1.00800           0
      9116 TIP3     266      TIP3     OH2      OT      -0.834000       15.9994           0
      9117 TIP3     266      TIP3     H1       HT       0.417000       1.00800           0
      9118 TIP3     266      TIP3     H2       HT       0.417000       1.00800           0
      9119 TIP3     267      TIP3     OH2      OT      -0.834000       15.9994           0
      9120 TIP3     267      TIP3     H1       HT       0.417000       1.00800           0
      9121 TIP3     267      TIP3     H2       HT       0.417000       1.00800           0
      9122 TIP3     268      TIP3     OH2      OT      -0.834000       15.9994           0
      9123 TIP3     268      TIP3     H1       HT       0.417000       1.00800           0
      9124 TIP3     268      TIP3     H2       HT       0.417000       1.00800           0
      9125 TIP3     269      TIP3     OH2      OT      -0.834000       15.9994           0
      9126 TIP3     269      TIP3     H1       HT       0.417000       1.00800           0
      9127 TIP3     269      TIP3     H2       HT       0.417000       1.00800           0
      9128 TIP3     270      TIP3     OH2      OT      -0.834000       15.9994           0
      9129 TIP3     270      TIP3     H1       HT       0.417000       1.00800           0
      9130 TIP3     270      TIP3     H2       HT       0.417000       1.00800           0
      9131 TIP3     271      TIP3     OH2      OT      -0.834000       15.9994           0
      9132 TIP3     271      TIP3     H1       HT       0.417000       1.00800           0
      9133 TIP3     271      TIP3     H2       HT       0.417000       1.00800           0
      9134 TIP3     272      TIP3     OH2      OT      -0.834000       15.9994           0
      9135 TIP3     272      TIP3     H1       HT       0.417000       1.00800           0
      9136 TIP3     272      TIP3     H2       HT       0.417000       1.00800           0
      9137 TIP3     273      TIP3     OH2      OT      -0.834000       15.9994           0
      9138 TIP3     273      TIP3     H1       HT       0.417000       1.00800           0
      9139 TIP3     273      TIP3     H2       HT       0.417000       1.00800           0
      9140 TIP3     274      TIP3     OH2      OT      -0.834000       15.9994           0
      9141 TIP3     274      TIP3     H1       HT       0.417000       1.00800           0
      9142 TIP3     274      TIP3     H2       HT       0.417000       1.00800           0
      9143 TIP3     275      TIP3     OH2      OT      -0.834000       15.9994           0
      9144 TIP3     275      TIP3     H1       HT       0.417000       1.00800           0
      9145 TIP3     275      TIP3     H2       HT       0.417000       1.00800           0
      9146 TIP3     276      TIP3     OH2      OT      -0.834000       15.9994           0
      9147 TIP3     276      TIP3     H1       HT       0.417000       1.00800           0
      9148 TIP3     276      TIP3     H2       HT       0.417000       1.00800           0
      9149 TIP3     277      TIP3     OH2      OT      -0.834000       15.9994           0
      9150 TIP3     277      TIP3     H1       HT       0.417000       1.00800           0
      9151 TIP3     277      TIP3     H2       HT       0.417000       1.00800           0
      9152 TIP3     278      TIP3     OH2      OT      -0.834000       15.9994           0
      9153 TIP3     278      TIP3     H1       HT       0.417000       1.00800           0
      9154 TIP3     278      TIP3     H2       HT       0.417000       1.00800           0
      9155 TIP3     279      TIP3     OH2      OT      -0.834000       15.9994           0
      9156 TIP3     279      TIP3     H1       HT       0.417000       1.00800           0
      9157 TIP3     279      TIP3     H2       HT       0.417000       1.00800           0
      9158 TIP3     280      TIP3     OH2      OT      -0.834000       15.9994           0
      9159 TIP3     280      TIP3     H1       HT       0.417000       1.00800           0
      9160 TIP3     280      TIP3     H2       HT       0.417000       1.00800           0
      9161 TIP3     281      TIP3     OH2      OT      -0.834000       15.9994           0
      9162 TIP3     281      TIP3     H1       HT       0.417000       1.00800           0
      9163 TIP3     281      TIP3     H2       HT       0.417000       1.00800           0
      9164 TIP3     282      TIP3     OH2      OT      -0.834000       15.9994           0
      9165 TIP3     282      TIP3     H1       HT       0.417000       1.00800           0
      9166 TIP3     282      TIP3     H2       HT       0.417000       1.00800           0
      9167 TIP3     283      TIP3     OH2      OT      -0.834000       15.9994           0
      9168 TIP3     283      TIP3     H1       HT       0.417000       1.00800           0
      9169 TIP3     283      TIP3     H2       HT       0.417000       1.00800           0
      9170 TIP3     284      TIP3     OH2      OT      -0.834000       15.9994           0
      9171 TIP3     284      TIP3     H1       HT       0.417000       1.00800           0
      9172 TIP3     284      TIP3     H2       HT       0.417000       1.00800           0
      9173 TIP3     285      TIP3     OH2      OT      -0.834000       15.9994           0
      9174 TIP3     285      TIP3     H1       HT       0.417000       1.00800           0
      9175 TIP3     285      TIP3     H2       HT       0.417000       1.00800           0
      9176 TIP3     286      TIP3     OH2      OT      -0.834000       15.9994           0
      9177 TIP3     286      TIP3     H1       HT       0.417000       1.00800           0
      9178 TIP3     286      TIP3     H2       HT       0.417000       1.00800           0
      9179 TIP3     287      TIP3     OH2      OT      -0.834000       15.9994           0
      9180 TIP3     287      TIP3     H1       HT       0.417000       1.00800           0
      9181 TIP3     287      TIP3     H2       HT       0.417000       1.00800           0
      9182 TIP3     288      TIP3     OH2      OT      -0.834000       15.9994           0
      9183 TIP3     288      TIP3     H1       HT       0.417000       1.00800           0
      9184 TIP3     288      TIP3     H2       HT       0.417000       1.00800           0
      9185 TIP3     289      TIP3     OH2      OT      -0.834000       15.9994           0
      9186 TIP3     289      TIP3     H1       HT       0.417000       1.00800           0
      9187 TIP3     289      TIP3     H2       HT       0.417000       1.00800           0
      9188 TIP3     290      TIP3     OH2      OT      -0.834000       15.9994           0
      9189 TIP3     290      TIP3     H1       HT       0.417000       1.00800           0
      9190 TIP3     290      TIP3     H2       HT       0.417000       1.00800           0
      9191 TIP3     291      TIP3     OH2      OT      -0.834000       15.9994           0
      9192 TIP3     291      TIP3     H1       HT       0.417000       1.00800           0
      9193 TIP3     291      TIP3     H2       HT       0.417000       1.00800           0
      9194 TIP3     292      TIP3     OH2      OT      -0.834000       15.9994           0
      9195 TIP3     292      TIP3     H1       HT       0.417000       1.00800           0
      9196 TIP3     292      TIP3     H2       HT       0.417000       1.00800           0
      9197 TIP3     293      TIP3     OH2      OT      -0.834000       15.9994           0
      9198 TIP3     293      TIP3     H1       HT       0.417000       1.00800           0
      9199 TIP3     293      TIP3     H2       HT       0.417000       1.00800           0
      9200 TIP3     294      TIP3     OH2      OT      -0.834000       15.9994           0
      9201 TIP3     294      TIP3     H1       HT       0.417000       1.00800           0
      9202 TIP3     294      TIP3     H2       HT       0.417000       1.00800           0
      9203 TIP3     295      TIP3     OH2      OT      -0.834000       15.9994           0
      9204 TIP3     295      TIP3     H1       HT       0.417000       1.00800           0
      9205 TIP3     295      TIP3     H2       HT       0.417000       1.00800           0
      9206 TIP3     296      TIP3     OH2      OT      -0.834000       15.9994           0
      9207 TIP3     296      TIP3     H1       HT       0.417000       1.00800           0
      9208 TIP3     296      TIP3     H2       HT       0.417000       1.00800           0
      9209 TIP3     297      TIP3     OH2      OT      -0.834000       15.9994           0
      9210 TIP3     297      TIP3     H1       HT       0.417000       1.00800           0
      9211 TIP3     297      TIP3     H2       HT       0.417000       1.00800           0
      9212 TIP3     298      TIP3     OH2      OT      -0.834000       15.9994           0
      9213 TIP3     298      TIP3     H1       HT       0.417000       1.00800           0
      9214 TIP3     298      TIP3     H2       HT       0.417000       1.00800           0
      9215 TIP3     299      TIP3     OH2      OT      -0.834000       15.9994           0
      9216 TIP3     299      TIP3     H1       HT       0.417000       1.00800           0
      9217 TIP3     299      TIP3     H2       HT       0.417000       1.00800           0
      9218 TIP3     300      TIP3     OH2      OT      -0.834000       15.9994           0
      9219 TIP3     300      TIP3     H1       HT       0.417000       1.00800           0
      9220 TIP3     300      TIP3     H2       HT       0.417000       1.00800           0
      9221 TIP3     301      TIP3     OH2      OT      -0.834000       15.9994           0
      9222 TIP3     301      TIP3     H1       HT       0.417000       1.00800           0
      9223 TIP3     301      TIP3     H2       HT       0.417000       1.00800           0
      9224 TIP3     302      TIP3     OH2      OT      -0.834000       15.9994           0
      9225 TIP3     302      TIP3     H1       HT       0.417000       1.00800           0
      9226 TIP3     302      TIP3     H2       HT       0.417000       1.00800           0
      9227 TIP3     303      TIP3     OH2      OT      -0.834000       15.9994           0
      9228 TIP3     303      TIP3     H1       HT       0.417000       1.00800           0
      9229 TIP3     303      TIP3     H2       HT       0.417000       1.00800           0
      9230 TIP3     304      TIP3     OH2      OT      -0.834000       15.9994           0
      9231 TIP3     304      TIP3     H1       HT       0.417000       1.00800           0
      9232 TIP3     304      TIP3     H2       HT       0.417000       1.00800           0
      9233 TIP3     305      TIP3     OH2      OT      -0.834000       15.9994           0
      9234 TIP3     305      TIP3     H1       HT       0.417000       1.00800           0
      9235 TIP3     305      TIP3     H2       HT       0.417000       1.00800           0
      9236 TIP3     306      TIP3     OH2      OT      -0.834000       15.9994           0
      9237 TIP3     306      TIP3     H1       HT       0.417000       1.00800           0
      9238 TIP3     306      TIP3     H2       HT       0.417000       1.00800           0
      9239 TIP3     307      TIP3     OH2      OT      -0.834000       15.9994           0
      9240 TIP3     307      TIP3     H1       HT       0.417000       1.00800           0
      9241 TIP3     307      TIP3     H2       HT       0.417000       1.00800           0
      9242 TIP3     308      TIP3     OH2      OT      -0.834000       15.9994           0
      9243 TIP3     308      TIP3     H1       HT       0.417000       1.00800           0
      9244 TIP3     308      TIP3     H2       HT       0.417000       1.00800           0
      9245 TIP3     309      TIP3     OH2      OT      -0.834000       15.9994           0
      9246 TIP3     309      TIP3     H1       HT       0.417000       1.00800           0
      9247 TIP3     309      TIP3     H2       HT       0.417000       1.00800           0
      9248 TIP3     310      TIP3     OH2      OT      -0.834000       15.9994           0
      9249 TIP3     310      TIP3     H1       HT       0.417000       1.00800           0
      9250 TIP3     310      TIP3     H2       HT       0.417000       1.00800           0
      9251 TIP3     311      TIP3     OH2      OT      -0.834000       15.9994           0
      9252 TIP3     311      TIP3     H1       HT       0.417000       1.00800           0
      9253 TIP3     311      TIP3     H2       HT       0.417000       1.00800           0
      9254 TIP3     312      TIP3     OH2      OT      -0.834000       15.9994           0
      9255 TIP3     312      TIP3     H1       HT       0.417000       1.00800           0
      9256 TIP3     312      TIP3     H2       HT       0.417000       1.00800           0
      9257 TIP3     313      TIP3     OH2      OT      -0.834000       15.9994           0
      9258 TIP3     313      TIP3     H1       HT       0.417000       1.00800           0
      9259 TIP3     313      TIP3     H2       HT       0.417000       1.00800           0
      9260 TIP3     314      TIP3     OH2      OT      -0.834000       15.9994           0
      9261 TIP3     314      TIP3     H1       HT       0.417000       1.00800           0
      9262 TIP3     314      TIP3     H2       HT       0.417000       1.00800           0
      9263 TIP3     315      TIP3     OH2      OT      -0.834000       15.9994           0
      9264 TIP3     315      TIP3     H1       HT       0.417000       1.00800           0
      9265 TIP3     315      TIP3     H2       HT       0.417000       1.00800           0
      9266 TIP3     316      TIP3     OH2      OT      -0.834000       15.9994           0
      9267 TIP3     316      TIP3     H1       HT       0.417000       1.00800           0
      9268 TIP3     316      TIP3     H2       HT       0.417000       1.00800           0
      9269 TIP3     317      TIP3     OH2      OT      -0.834000       15.9994           0
      9270 TIP3     317      TIP3     H1       HT       0.417000       1.00800           0
      9271 TIP3     317      TIP3     H2       HT       0.417000       1.00800           0
      9272 TIP3     318      TIP3     OH2      OT      -0.834000       15.9994           0
      9273 TIP3     318      TIP3     H1       HT       0.417000       1.00800           0
      9274 TIP3     318      TIP3     H2       HT       0.417000       1.00800           0
      9275 TIP3     319      TIP3     OH2      OT      -0.834000       15.9994           0
      9276 TIP3     319      TIP3     H1       HT       0.417000       1.00800           0
      9277 TIP3     319      TIP3     H2       HT       0.417000       1.00800           0
      9278 TIP3     320      TIP3     OH2      OT      -0.834000       15.9994           0
      9279 TIP3     320      TIP3     H1       HT       0.417000       1.00800           0
      9280 TIP3     320      TIP3     H2       HT       0.417000       1.00800           0
      9281 TIP3     321      TIP3     OH2      OT      -0.834000       15.9994           0
      9282 TIP3     321      TIP3     H1       HT       0.417000       1.00800           0
      9283 TIP3     321      TIP3     H2       HT       0.417000       1.00800           0
      9284 TIP3     322      TIP3     OH2      OT      -0.834000       15.9994           0
      9285 TIP3     322      TIP3     H1       HT       0.417000       1.00800           0
      9286 TIP3     322      TIP3     H2       HT       0.417000       1.00800           0
      9287 TIP3     323      TIP3     OH2      OT      -0.834000       15.9994           0
      9288 TIP3     323      TIP3     H1       HT       0.417000       1.00800           0
      9289 TIP3     323      TIP3     H2       HT       0.417000       1.00800           0
      9290 TIP3     324      TIP3     OH2      OT      -0.834000       15.9994           0
      9291 TIP3     324      TIP3     H1       HT       0.417000       1.00800           0
      9292 TIP3     324      TIP3     H2       HT       0.417000       1.00800           0
      9293 TIP3     325      TIP3     OH2      OT      -0.834000       15.9994           0
      9294 TIP3     325      TIP3     H1       HT       0.417000       1.00800           0
      9295 TIP3     325      TIP3     H2       HT       0.417000       1.00800           0
      9296 TIP3     326      TIP3     OH2      OT      -0.834000       15.9994           0
      9297 TIP3     326      TIP3     H1       HT       0.417000       1.00800           0
      9298 TIP3     326      TIP3     H2       HT       0.417000       1.00800           0
      9299 TIP3     327      TIP3     OH2      OT      -0.834000       15.9994           0
      9300 TIP3     327      TIP3     H1       HT       0.417000       1.00800           0
      9301 TIP3     327      TIP3     H2       HT       0.417000       1.00800           0
      9302 TIP3     328      TIP3     OH2      OT      -0.834000       15.9994           0
      9303 TIP3     328      TIP3     H1       HT       0.417000       1.00800           0
      9304 TIP3     328      TIP3     H2       HT       0.417000       1.00800           0
      9305 TIP3     329      TIP3     OH2      OT      -0.834000       15.9994           0
      9306 TIP3     329      TIP3     H1       HT       0.417000       1.00800           0
      9307 TIP3     329      TIP3     H2       HT       0.417000       1.00800           0
      9308 TIP3     330      TIP3     OH2      OT      -0.834000       15.9994           0
      9309 TIP3     330      TIP3     H1       HT       0.417000       1.00800           0
      9310 TIP3     330      TIP3     H2       HT       0.417000       1.00800           0
      9311 TIP3     331      TIP3     OH2      OT      -0.834000       15.9994           0
      9312 TIP3     331      TIP3     H1       HT       0.417000       1.00800           0
      9313 TIP3     331      TIP3     H2       HT       0.417000       1.00800           0
      9314 TIP3     332      TIP3     OH2      OT      -0.834000       15.9994           0
      9315 TIP3     332      TIP3     H1       HT       0.417000       1.00800           0
      9316 TIP3     332      TIP3     H2       HT       0.417000       1.00800           0
      9317 TIP3     333      TIP3     OH2      OT      -0.834000       15.9994           0
      9318 TIP3     333      TIP3     H1       HT       0.417000       1.00800           0
      9319 TIP3     333      TIP3     H2       HT       0.417000       1.00800           0
      9320 TIP3     334      TIP3     OH2      OT      -0.834000       15.9994           0
      9321 TIP3     334      TIP3     H1       HT       0.417000       1.00800           0
      9322 TIP3     334      TIP3     H2       HT       0.417000       1.00800           0
      9323 TIP3     335      TIP3     OH2      OT      -0.834000       15.9994           0
      9324 TIP3     335      TIP3     H1       HT       0.417000       1.00800           0
      9325 TIP3     335      TIP3     H2       HT       0.417000       1.00800           0
      9326 TIP3     336      TIP3     OH2      OT      -0.834000       15.9994           0
      9327 TIP3     336      TIP3     H1       HT       0.417000       1.00800           0
      9328 TIP3     336      TIP3     H2       HT       0.417000       1.00800           0
      9329 TIP3     337      TIP3     OH2      OT      -0.834000       15.9994           0
      9330 TIP3     337      TIP3     H1       HT       0.417000       1.00800           0
      9331 TIP3     337      TIP3     H2       HT       0.417000       1.00800           0
      9332 TIP3     338      TIP3     OH2      OT      -0.834000       15.9994           0
      9333 TIP3     338      TIP3     H1       HT       0.417000       1.00800           0
      9334 TIP3     338      TIP3     H2       HT       0.417000       1.00800           0
      9335 TIP3     339      TIP3     OH2      OT      -0.834000       15.9994           0
      9336 TIP3     339      TIP3     H1       HT       0.417000       1.00800           0
      9337 TIP3     339      TIP3     H2       HT       0.417000       1.00800           0
      9338 TIP3     340      TIP3     OH2      OT      -0.834000       15.9994           0
      9339 TIP3     340      TIP3     H1       HT       0.417000       1.00800           0
      9340 TIP3     340      TIP3     H2       HT       0.417000       1.00800           0
      9341 TIP3     341      TIP3     OH2      OT      -0.834000       15.9994           0
      9342 TIP3     341      TIP3     H1       HT       0.417000       1.00800           0
      9343 TIP3     341      TIP3     H2       HT       0.417000       1.00800           0
      9344 TIP3     342      TIP3     OH2      OT      -0.834000       15.9994           0
      9345 TIP3     342      TIP3     H1       HT       0.417000       1.00800           0
      9346 TIP3     342      TIP3     H2       HT       0.417000       1.00800           0
      9347 TIP3     343      TIP3     OH2      OT      -0.834000       15.9994           0
      9348 TIP3     343      TIP3     H1       HT       0.417000       1.00800           0
      9349 TIP3     343      TIP3     H2       HT       0.417000       1.00800           0
      9350 TIP3     344      TIP3     OH2      OT      -0.834000       15.9994           0
      9351 TIP3     344      TIP3     H1       HT       0.417000       1.00800           0
      9352 TIP3     344      TIP3     H2       HT       0.417000       1.00800           0
      9353 TIP3     345      TIP3     OH2      OT      -0.834000       15.9994           0
      9354 TIP3     345      TIP3     H1       HT       0.417000       1.00800           0
      9355 TIP3     345      TIP3     H2       HT       0.417000       1.00800           0
      9356 TIP3     346      TIP3     OH2      OT      -0.834000       15.9994           0
      9357 TIP3     346      TIP3     H1       HT       0.417000       1.00800           0
      9358 TIP3     346      TIP3     H2       HT       0.417000       1.00800           0
      9359 TIP3     347      TIP3     OH2      OT      -0.834000       15.9994           0
      9360 TIP3     347      TIP3     H1       HT       0.417000       1.00800           0
      9361 TIP3     347      TIP3     H2       HT       0.417000       1.00800           0
      9362 TIP3     348      TIP3     OH2      OT      -0.834000       15.9994           0
      9363 TIP3     348      TIP3     H1       HT       0.417000       1.00800           0
      9364 TIP3     348      TIP3     H2       HT       0.417000       1.00800           0
      9365 TIP3     349      TIP3     OH2      OT      -0.834000       15.9994           0
      9366 TIP3     349      TIP3     H1       HT       0.417000       1.00800           0
      9367 TIP3     349      TIP3     H2       HT       0.417000       1.00800           0
      9368 TIP3     350      TIP3     OH2      OT      -0.834000       15.9994           0
      9369 TIP3     350      TIP3     H1       HT       0.417000       1.00800           0
      9370 TIP3     350      TIP3     H2       HT       0.417000       1.00800           0
      9371 TIP3     351      TIP3     OH2      OT      -0.834000       15.9994           0
      9372 TIP3     351      TIP3     H1       HT       0.417000       1.00800           0
      9373 TIP3     351      TIP3     H2       HT       0.417000       1.00800           0
      9374 TIP3     352      TIP3     OH2      OT      -0.834000       15.9994           0
      9375 TIP3     352      TIP3     H1       HT       0.417000       1.00800           0
      9376 TIP3     352      TIP3     H2       HT       0.417000       1.00800           0
      9377 TIP3     353      TIP3     OH2      OT      -0.834000       15.9994           0
      9378 TIP3     353      TIP3     H1       HT       0.417000       1.00800           0
      9379 TIP3     353      TIP3     H2       HT       0.417000       1.00800           0
      9380 TIP3     354      TIP3     OH2      OT      -0.834000       15.9994           0
      9381 TIP3     354      TIP3     H1       HT       0.417000       1.00800           0
      9382 TIP3     354      TIP3     H2       HT       0.417000       1.00800           0
      9383 TIP3     355      TIP3     OH2      OT      -0.834000       15.9994           0
      9384 TIP3     355      TIP3     H1       HT       0.417000       1.00800           0
      9385 TIP3     355      TIP3     H2       HT       0.417000       1.00800           0
      9386 TIP3     356      TIP3     OH2      OT      -0.834000       15.9994           0
      9387 TIP3     356      TIP3     H1       HT       0.417000       1.00800           0
      9388 TIP3     356      TIP3     H2       HT       0.417000       1.00800           0
      9389 TIP3     357      TIP3     OH2      OT      -0.834000       15.9994           0
      9390 TIP3     357      TIP3     H1       HT       0.417000       1.00800           0
      9391 TIP3     357      TIP3     H2       HT       0.417000       1.00800           0
      9392 TIP3     358      TIP3     OH2      OT      -0.834000       15.9994           0
      9393 TIP3     358      TIP3     H1       HT       0.417000       1.00800           0
      9394 TIP3     358      TIP3     H2       HT       0.417000       1.00800           0
      9395 TIP3     359      TIP3     OH2      OT      -0.834000       15.9994           0
      9396 TIP3     359      TIP3     H1       HT       0.417000       1.00800           0
      9397 TIP3     359      TIP3     H2       HT       0.417000       1.00800           0
      9398 TIP3     360      TIP3     OH2      OT      -0.834000       15.9994           0
      9399 TIP3     360      TIP3     H1       HT       0.417000       1.00800           0
      9400 TIP3     360      TIP3     H2       HT       0.417000       1.00800           0
      9401 TIP3     361      TIP3     OH2      OT      -0.834000       15.9994           0
      9402 TIP3     361      TIP3     H1       HT       0.417000       1.00800           0
      9403 TIP3     361      TIP3     H2       HT       0.417000       1.00800           0
      9404 TIP3     362      TIP3     OH2      OT      -0.834000       15.9994           0
      9405 TIP3     362      TIP3     H1       HT       0.417000       1.00800           0
      9406 TIP3     362      TIP3     H2       HT       0.417000       1.00800           0
      9407 TIP3     363      TIP3     OH2      OT      -0.834000       15.9994           0
      9408 TIP3     363      TIP3     H1       HT       0.417000       1.00800           0
      9409 TIP3     363      TIP3     H2       HT       0.417000       1.00800           0
      9410 TIP3     364      TIP3     OH2      OT      -0.834000       15.9994           0
      9411 TIP3     364      TIP3     H1       HT       0.417000       1.00800           0
      9412 TIP3     364      TIP3     H2       HT       0.417000       1.00800           0
      9413 TIP3     365      TIP3     OH2      OT      -0.834000       15.9994           0
      9414 TIP3     365      TIP3     H1       HT       0.417000       1.00800           0
      9415 TIP3     365      TIP3     H2       HT       0.417000       1.00800           0
      9416 TIP3     366      TIP3     OH2      OT      -0.834000       15.9994           0
      9417 TIP3     366      TIP3     H1       HT       0.417000       1.00800           0
      9418 TIP3     366      TIP3     H2       HT       0.417000       1.00800           0
      9419 TIP3     367      TIP3     OH2      OT      -0.834000       15.9994           0
      9420 TIP3     367      TIP3     H1       HT       0.417000       1.00800           0
      9421 TIP3     367      TIP3     H2       HT       0.417000       1.00800           0
      9422 TIP3     368      TIP3     OH2      OT      -0.834000       15.9994           0
      9423 TIP3     368      TIP3     H1       HT       0.417000       1.00800           0
      9424 TIP3     368      TIP3     H2       HT       0.417000       1.00800           0
      9425 TIP3     369      TIP3     OH2      OT      -0.834000       15.9994           0
      9426 TIP3     369      TIP3     H1       HT       0.417000       1.00800           0
      9427 TIP3     369      TIP3     H2       HT       0.417000       1.00800           0
      9428 TIP3     370      TIP3     OH2      OT      -0.834000       15.9994           0
      9429 TIP3     370      TIP3     H1       HT       0.417000       1.00800           0
      9430 TIP3     370      TIP3     H2       HT       0.417000       1.00800           0
      9431 TIP3     371      TIP3     OH2      OT      -0.834000       15.9994           0
      9432 TIP3     371      TIP3     H1       HT       0.417000       1.00800           0
      9433 TIP3     371      TIP3     H2       HT       0.417000       1.00800           0
      9434 TIP3     372      TIP3     OH2      OT      -0.834000       15.9994           0
      9435 TIP3     372      TIP3     H1       HT       0.417000       1.00800           0
      9436 TIP3     372      TIP3     H2       HT       0.417000       1.00800           0
      9437 TIP3     373      TIP3     OH2      OT      -0.834000       15.9994           0
      9438 TIP3     373      TIP3     H1       HT       0.417000       1.00800           0
      9439 TIP3     373      TIP3     H2       HT       0.417000       1.00800           0
      9440 TIP3     374      TIP3     OH2      OT      -0.834000       15.9994           0
      9441 TIP3     374      TIP3     H1       HT       0.417000       1.00800           0
      9442 TIP3     374      TIP3     H2       HT       0.417000       1.00800           0
      9443 TIP3     375      TIP3     OH2      OT      -0.834000       15.9994           0
      9444 TIP3     375      TIP3     H1       HT       0.417000       1.00800           0
      9445 TIP3     375      TIP3     H2       HT       0.417000       1.00800           0
      9446 TIP3     376      TIP3     OH2      OT      -0.834000       15.9994           0
      9447 TIP3     376      TIP3     H1       HT       0.417000       1.00800           0
      9448 TIP3     376      TIP3     H2       HT       0.417000       1.00800           0
      9449 TIP3     377      TIP3     OH2      OT      -0.834000       15.9994           0
      9450 TIP3     377      TIP3     H1       HT       0.417000       1.00800           0
      9451 TIP3     377      TIP3     H2       HT       0.417000       1.00800           0
      9452 TIP3     378      TIP3     OH2      OT      -0.834000       15.9994           0
      9453 TIP3     378      TIP3     H1       HT       0.417000       1.00800           0
      9454 TIP3     378      TIP3     H2       HT       0.417000       1.00800           0
      9455 TIP3     379      TIP3     OH2      OT      -0.834000       15.9994           0
      9456 TIP3     379      TIP3     H1       HT       0.417000       1.00800           0
      9457 TIP3     379      TIP3     H2       HT       0.417000       1.00800           0
      9458 TIP3     380      TIP3     OH2      OT      -0.834000       15.9994           0
      9459 TIP3     380      TIP3     H1       HT       0.417000       1.00800           0
      9460 TIP3     380      TIP3     H2       HT       0.417000       1.00800           0
      9461 TIP3     381      TIP3     OH2      OT      -0.834000       15.9994           0
      9462 TIP3     381      TIP3     H1       HT       0.417000       1.00800           0
      9463 TIP3     381      TIP3     H2       HT       0.417000       1.00800           0
      9464 TIP3     382      TIP3     OH2      OT      -0.834000       15.9994           0
      9465 TIP3     382      TIP3     H1       HT       0.417000       1.00800           0
      9466 TIP3     382      TIP3     H2       HT       0.417000       1.00800           0
      9467 TIP3     383      TIP3     OH2      OT      -0.834000       15.9994           0
      9468 TIP3     383      TIP3     H1       HT       0.417000       1.00800           0
      9469 TIP3     383      TIP3     H2       HT       0.417000       1.00800           0
      9470 TIP3     384      TIP3     OH2      OT      -0.834000       15.9994           0
      9471 TIP3     384      TIP3     H1       HT       0.417000       1.00800           0
      9472 TIP3     384      TIP3     H2       HT       0.417000       1.00800           0
      9473 TIP3     385      TIP3     OH2      OT      -0.834000       15.9994           0
      9474 TIP3     385      TIP3     H1       HT       0.417000       1.00800           0
      9475 TIP3     385      TIP3     H2       HT       0.417000       1.00800           0
      9476 TIP3     386      TIP3     OH2      OT      -0.834000       15.9994           0
      9477 TIP3     386      TIP3     H1       HT       0.417000       1.00800           0
      9478 TIP3     386      TIP3     H2       HT       0.417000       1.00800           0
      9479 TIP3     387      TIP3     OH2      OT      -0.834000       15.9994           0
      9480 TIP3     387      TIP3     H1       HT       0.417000       1.00800           0
      9481 TIP3     387      TIP3     H2       HT       0.417000       1.00800           0
      9482 TIP3     388      TIP3     OH2      OT      -0.834000       15.9994           0
      9483 TIP3     388      TIP3     H1       HT       0.417000       1.00800           0
      9484 TIP3     388      TIP3     H2       HT       0.417000       1.00800           0
      9485 TIP3     389      TIP3     OH2      OT      -0.834000       15.9994           0
      9486 TIP3     389      TIP3     H1       HT       0.417000       1.00800           0
      9487 TIP3     389      TIP3     H2       HT       0.417000       1.00800           0
      9488 TIP3     390      TIP3     OH2      OT      -0.834000       15.9994           0
      9489 TIP3     390      TIP3     H1       HT       0.417000       1.00800           0
      9490 TIP3     390      TIP3     H2       HT       0.417000       1.00800           0
      9491 TIP3     391      TIP3     OH2      OT      -0.834000       15.9994           0
      9492 TIP3     391      TIP3     H1       HT       0.417000       1.00800           0
      9493 TIP3     391      TIP3     H2       HT       0.417000       1.00800           0
      9494 TIP3     392      TIP3     OH2      OT      -0.834000       15.9994           0
      9495 TIP3     392      TIP3     H1       HT       0.417000       1.00800           0
      9496 TIP3     392      TIP3     H2       HT       0.417000       1.00800           0
      9497 TIP3     393      TIP3     OH2      OT      -0.834000       15.9994           0
      9498 TIP3     393      TIP3     H1       HT       0.417000       1.00800           0
      9499 TIP3     393      TIP3     H2       HT       0.417000       1.00800           0
      9500 TIP3     394      TIP3     OH2      OT      -0.834000       15.9994           0
      9501 TIP3     394      TIP3     H1       HT       0.417000       1.00800           0
      9502 TIP3     394      TIP3     H2       HT       0.417000       1.00800           0
      9503 TIP3     395      TIP3     OH2      OT      -0.834000       15.9994           0
      9504 TIP3     395      TIP3     H1       HT       0.417000       1.00800           0
      9505 TIP3     395      TIP3     H2       HT       0.417000       1.00800           0
      9506 TIP3     396      TIP3     OH2      OT      -0.834000       15.9994           0
      9507 TIP3     396      TIP3     H1       HT       0.417000       1.00800           0
      9508 TIP3     396      TIP3     H2       HT       0.417000       1.00800           0
      9509 TIP3     397      TIP3     OH2      OT      -0.834000       15.9994           0
      9510 TIP3     397      TIP3     H1       HT       0.417000       1.00800           0
      9511 TIP3     397      TIP3     H2       HT       0.417000       1.00800           0
      9512 TIP3     398      TIP3     OH2      OT      -0.834000       15.9994           0
      9513 TIP3     398      TIP3     H1       HT       0.417000       1.00800           0
      9514 TIP3     398      TIP3     H2       HT       0.417000       1.00800           0
      9515 TIP3     399      TIP3     OH2      OT      -0.834000       15.9994           0
      9516 TIP3     399      TIP3     H1       HT       0.417000       1.00800           0
      9517 TIP3     399      TIP3     H2       HT       0.417000       1.00800           0
      9518 TIP3     400      TIP3     OH2      OT      -0.834000       15.9994           0
      9519 TIP3     400      TIP3     H1       HT       0.417000       1.00800           0
      9520 TIP3     400      TIP3     H2       HT       0.417000       1.00800           0
      9521 TIP3     401      TIP3     OH2      OT      -0.834000       15.9994           0
      9522 TIP3     401      TIP3     H1       HT       0.417000       1.00800           0
      9523 TIP3     401      TIP3     H2       HT       0.417000       1.00800           0
      9524 TIP3     402      TIP3     OH2      OT      -0.834000       15.9994           0
      9525 TIP3     402      TIP3     H1       HT       0.417000       1.00800           0
      9526 TIP3     402      TIP3     H2       HT       0.417000       1.00800           0
      9527 TIP3     403      TIP3     OH2      OT      -0.834000       15.9994           0
      9528 TIP3     403      TIP3     H1       HT       0.417000       1.00800           0
      9529 TIP3     403      TIP3     H2       HT       0.417000       1.00800           0
      9530 TIP3     404      TIP3     OH2      OT      -0.834000       15.9994           0
      9531 TIP3     404      TIP3     H1       HT       0.417000       1.00800           0
      9532 TIP3     404      TIP3     H2       HT       0.417000       1.00800           0
      9533 TIP3     405      TIP3     OH2      OT      -0.834000       15.9994           0
      9534 TIP3     405      TIP3     H1       HT       0.417000       1.00800           0
      9535 TIP3     405      TIP3     H2       HT       0.417000       1.00800           0
      9536 TIP3     406      TIP3     OH2      OT      -0.834000       15.9994           0
      9537 TIP3     406      TIP3     H1       HT       0.417000       1.00800           0
      9538 TIP3     406      TIP3     H2       HT       0.417000       1.00800           0
      9539 TIP3     407      TIP3     OH2      OT      -0.834000       15.9994           0
      9540 TIP3     407      TIP3     H1       HT       0.417000       1.00800           0
      9541 TIP3     407      TIP3     H2       HT       0.417000       1.00800           0
      9542 TIP3     408      TIP3     OH2      OT      -0.834000       15.9994           0
      9543 TIP3     408      TIP3     H1       HT       0.417000       1.00800           0
      9544 TIP3     408      TIP3     H2       HT       0.417000       1.00800           0
      9545 TIP3     409      TIP3     OH2      OT      -0.834000       15.9994           0
      9546 TIP3     409      TIP3     H1       HT       0.417000       1.00800           0
      9547 TIP3     409      TIP3     H2       HT       0.417000       1.00800           0
      9548 TIP3     410      TIP3     OH2      OT      -0.834000       15.9994           0
      9549 TIP3     410      TIP3     H1       HT       0.417000       1.00800           0
      9550 TIP3     410      TIP3     H2       HT       0.417000       1.00800           0
      9551 TIP3     411      TIP3     OH2      OT      -0.834000       15.9994           0
      9552 TIP3     411      TIP3     H1       HT       0.417000       1.00800           0
      9553 TIP3     411      TIP3     H2       HT       0.417000       1.00800           0
      9554 TIP3     412      TIP3     OH2      OT      -0.834000       15.9994           0
      9555 TIP3     412      TIP3     H1       HT       0.417000       1.00800           0
      9556 TIP3     412      TIP3     H2       HT       0.417000       1.00800           0
      9557 TIP3     413      TIP3     OH2      OT      -0.834000       15.9994           0
      9558 TIP3     413      TIP3     H1       HT       0.417000       1.00800           0
      9559 TIP3     413      TIP3     H2       HT       0.417000       1.00800           0
      9560 TIP3     414      TIP3     OH2      OT      -0.834000       15.9994           0
      9561 TIP3     414      TIP3     H1       HT       0.417000       1.00800           0
      9562 TIP3     414      TIP3     H2       HT       0.417000       1.00800           0
      9563 TIP3     415      TIP3     OH2      OT      -0.834000       15.9994           0
      9564 TIP3     415      TIP3     H1       HT       0.417000       1.00800           0
      9565 TIP3     415      TIP3     H2       HT       0.417000       1.00800           0
      9566 TIP3     416      TIP3     OH2      OT      -0.834000       15.9994           0
      9567 TIP3     416      TIP3     H1       HT       0.417000       1.00800           0
      9568 TIP3     416      TIP3     H2       HT       0.417000       1.00800           0
      9569 TIP3     417      TIP3     OH2      OT      -0.834000       15.9994           0
      9570 TIP3     417      TIP3     H1       HT       0.417000       1.00800           0
      9571 TIP3     417      TIP3     H2       HT       0.417000       1.00800           0
      9572 TIP3     418      TIP3     OH2      OT      -0.834000       15.9994           0
      9573 TIP3     418      TIP3     H1       HT       0.417000       1.00800           0
      9574 TIP3     418      TIP3     H2       HT       0.417000       1.00800           0
      9575 TIP3     419      TIP3     OH2      OT      -0.834000       15.9994           0
      9576 TIP3     419      TIP3     H1       HT       0.417000       1.00800           0
      9577 TIP3     419      TIP3     H2       HT       0.417000       1.00800           0
      9578 TIP3     420      TIP3     OH2      OT      -0.834000       15.9994           0
      9579 TIP3     420      TIP3     H1       HT       0.417000       1.00800           0
      9580 TIP3     420      TIP3     H2       HT       0.417000       1.00800           0
      9581 TIP3     421      TIP3     OH2      OT      -0.834000       15.9994           0
      9582 TIP3     421      TIP3     H1       HT       0.417000       1.00800           0
      9583 TIP3     421      TIP3     H2       HT       0.417000       1.00800           0
      9584 TIP3     422      TIP3     OH2      OT      -0.834000       15.9994           0
      9585 TIP3     422      TIP3     H1       HT       0.417000       1.00800           0
      9586 TIP3     422      TIP3     H2       HT       0.417000       1.00800           0
      9587 TIP3     423      TIP3     OH2      OT      -0.834000       15.9994           0
      9588 TIP3     423      TIP3     H1       HT       0.417000       1.00800           0
      9589 TIP3     423      TIP3     H2       HT       0.417000       1.00800           0
      9590 TIP3     424      TIP3     OH2      OT      -0.834000       15.9994           0
      9591 TIP3     424      TIP3     H1       HT       0.417000       1.00800           0
      9592 TIP3     424      TIP3     H2       HT       0.417000       1.00800           0
      9593 TIP3     425      TIP3     OH2      OT      -0.834000       15.9994           0
      9594 TIP3     425      TIP3     H1       HT       0.417000       1.00800           0
      9595 TIP3     425      TIP3     H2       HT       0.417000       1.00800           0
      9596 TIP3     426      TIP3     OH2      OT      -0.834000       15.9994           0
      9597 TIP3     426      TIP3     H1       HT       0.417000       1.00800           0
      9598 TIP3     426      TIP3     H2       HT       0.417000       1.00800           0
      9599 TIP3     427      TIP3     OH2      OT      -0.834000       15.9994           0
      9600 TIP3     427      TIP3     H1       HT       0.417000       1.00800           0
      9601 TIP3     427      TIP3     H2       HT       0.417000       1.00800           0
      9602 TIP3     428      TIP3     OH2      OT      -0.834000       15.9994           0
      9603 TIP3     428      TIP3     H1       HT       0.417000       1.00800           0
      9604 TIP3     428      TIP3     H2       HT       0.417000       1.00800           0
      9605 TIP3     429      TIP3     OH2      OT      -0.834000       15.9994           0
      9606 TIP3     429      TIP3     H1       HT       0.417000       1.00800           0
      9607 TIP3     429      TIP3     H2       HT       0.417000       1.00800           0
      9608 TIP3     430      TIP3     OH2      OT      -0.834000       15.9994           0
      9609 TIP3     430      TIP3     H1       HT       0.417000       1.00800           0
      9610 TIP3     430      TIP3     H2       HT       0.417000       1.00800           0
      9611 TIP3     431      TIP3     OH2      OT      -0.834000       15.9994           0
      9612 TIP3     431      TIP3     H1       HT       0.417000       1.00800           0
      9613 TIP3     431      TIP3     H2       HT       0.417000       1.00800           0
      9614 TIP3     432      TIP3     OH2      OT      -0.834000       15.9994           0
      9615 TIP3     432      TIP3     H1       HT       0.417000       1.00800           0
      9616 TIP3     432      TIP3     H2       HT       0.417000       1.00800           0
      9617 TIP3     433      TIP3     OH2      OT      -0.834000       15.9994           0
      9618 TIP3     433      TIP3     H1       HT       0.417000       1.00800           0
      9619 TIP3     433      TIP3     H2       HT       0.417000       1.00800           0
      9620 TIP3     434      TIP3     OH2      OT      -0.834000       15.9994           0
      9621 TIP3     434      TIP3     H1       HT       0.417000       1.00800           0
      9622 TIP3     434      TIP3     H2       HT       0.417000       1.00800           0
      9623 TIP3     435      TIP3     OH2      OT      -0.834000       15.9994           0
      9624 TIP3     435      TIP3     H1       HT       0.417000       1.00800           0
      9625 TIP3     435      TIP3     H2       HT       0.417000       1.00800           0
      9626 TIP3     436      TIP3     OH2      OT      -0.834000       15.9994           0
      9627 TIP3     436      TIP3     H1       HT       0.417000       1.00800           0
      9628 TIP3     436      TIP3     H2       HT       0.417000       1.00800           0
      9629 TIP3     437      TIP3     OH2      OT      -0.834000       15.9994           0
      9630 TIP3     437      TIP3     H1       HT       0.417000       1.00800           0
      9631 TIP3     437      TIP3     H2       HT       0.417000       1.00800           0
      9632 TIP3     438      TIP3     OH2      OT      -0.834000       15.9994           0
      9633 TIP3     438      TIP3     H1       HT       0.417000       1.00800           0
      9634 TIP3     438      TIP3     H2       HT       0.417000       1.00800           0
      9635 TIP3     439      TIP3     OH2      OT      -0.834000       15.9994           0
      9636 TIP3     439      TIP3     H1       HT       0.417000       1.00800           0
      9637 TIP3     439      TIP3     H2       HT       0.417000       1.00800           0
      9638 TIP3     440      TIP3     OH2      OT      -0.834000       15.9994           0
      9639 TIP3     440      TIP3     H1       HT       0.417000       1.00800           0
      9640 TIP3     440      TIP3     H2       HT       0.417000       1.00800           0
      9641 TIP3     441      TIP3     OH2      OT      -0.834000       15.9994           0
      9642 TIP3     441      TIP3     H1       HT       0.417000       1.00800           0
      9643 TIP3     441      TIP3     H2       HT       0.417000       1.00800           0
      9644 TIP3     442      TIP3     OH2      OT      -0.834000       15.9994           0
      9645 TIP3     442      TIP3     H1       HT       0.417000       1.00800           0
      9646 TIP3     442      TIP3     H2       HT       0.417000       1.00800           0
      9647 TIP3     443      TIP3     OH2      OT      -0.834000       15.9994           0
      9648 TIP3     443      TIP3     H1       HT       0.417000       1.00800           0
      9649 TIP3     443      TIP3     H2       HT       0.417000       1.00800           0
      9650 TIP3     444      TIP3     OH2      OT      -0.834000       15.9994           0
      9651 TIP3     444      TIP3     H1       HT       0.417000       1.00800           0
      9652 TIP3     444      TIP3     H2       HT       0.417000       1.00800           0
      9653 TIP3     445      TIP3     OH2      OT      -0.834000       15.9994           0
      9654 TIP3     445      TIP3     H1       HT       0.417000       1.00800           0
      9655 TIP3     445      TIP3     H2       HT       0.417000       1.00800           0
      9656 TIP3     446      TIP3     OH2      OT      -0.834000       15.9994           0
      9657 TIP3     446      TIP3     H1       HT       0.417000       1.00800           0
      9658 TIP3     446      TIP3     H2       HT       0.417000       1.00800           0
      9659 TIP3     447      TIP3     OH2      OT      -0.834000       15.9994           0
      9660 TIP3     447      TIP3     H1       HT       0.417000       1.00800           0
      9661 TIP3     447      TIP3     H2       HT       0.417000       1.00800           0
      9662 TIP3     448      TIP3     OH2      OT      -0.834000       15.9994           0
      9663 TIP3     448      TIP3     H1       HT       0.417000       1.00800           0
      9664 TIP3     448      TIP3     H2       HT       0.417000       1.00800           0
      9665 TIP3     449      TIP3     OH2      OT      -0.834000       15.9994           0
      9666 TIP3     449      TIP3     H1       HT       0.417000       1.00800           0
      9667 TIP3     449      TIP3     H2       HT       0.417000       1.00800           0
      9668 TIP3     450      TIP3     OH2      OT      -0.834000       15.9994           0
      9669 TIP3     450      TIP3     H1       HT       0.417000       1.00800           0
      9670 TIP3     450      TIP3     H2       HT       0.417000       1.00800           0
      9671 TIP3     451      TIP3     OH2      OT      -0.834000       15.9994           0
      9672 TIP3     451      TIP3     H1       HT       0.417000       1.00800           0
      9673 TIP3     451      TIP3     H2       HT       0.417000       1.00800           0
      9674 TIP3     452      TIP3     OH2      OT      -0.834000       15.9994           0
      9675 TIP3     452      TIP3     H1       HT       0.417000       1.00800           0
      9676 TIP3     452      TIP3     H2       HT       0.417000       1.00800           0
      9677 TIP3     453      TIP3     OH2      OT      -0.834000       15.9994           0
      9678 TIP3     453      TIP3     H1       HT       0.417000       1.00800           0
      9679 TIP3     453      TIP3     H2       HT       0.417000       1.00800           0
      9680 TIP3     454      TIP3     OH2      OT      -0.834000       15.9994           0
      9681 TIP3     454      TIP3     H1       HT       0.417000       1.00800           0
      9682 TIP3     454      TIP3     H2       HT       0.417000       1.00800           0
      9683 TIP3     455      TIP3     OH2      OT      -0.834000       15.9994           0
      9684 TIP3     455      TIP3     H1       HT       0.417000       1.00800           0
      9685 TIP3     455      TIP3     H2       HT       0.417000       1.00800           0
      9686 TIP3     456      TIP3     OH2      OT      -0.834000       15.9994           0
      9687 TIP3     456      TIP3     H1       HT       0.417000       1.00800           0
      9688 TIP3     456      TIP3     H2       HT       0.417000       1.00800           0
      9689 TIP3     457      TIP3     OH2      OT      -0.834000       15.9994           0
      9690 TIP3     457      TIP3     H1       HT       0.417000       1.00800           0
      9691 TIP3     457      TIP3     H2       HT       0.417000       1.00800           0
      9692 TIP3     458      TIP3     OH2      OT      -0.834000       15.9994           0
      9693 TIP3     458      TIP3     H1       HT       0.417000       1.00800           0
      9694 TIP3     458      TIP3     H2       HT       0.417000       1.00800           0
      9695 TIP3     459      TIP3     OH2      OT      -0.834000       15.9994           0
      9696 TIP3     459      TIP3     H1       HT       0.417000       1.00800           0
      9697 TIP3     459      TIP3     H2       HT       0.417000       1.00800           0
      9698 TIP3     460      TIP3     OH2      OT      -0.834000       15.9994           0
      9699 TIP3     460      TIP3     H1       HT       0.417000       1.00800           0
      9700 TIP3     460      TIP3     H2       HT       0.417000       1.00800           0
      9701 TIP3     461      TIP3     OH2      OT      -0.834000       15.9994           0
      9702 TIP3     461      TIP3     H1       HT       0.417000       1.00800           0
      9703 TIP3     461      TIP3     H2       HT       0.417000       1.00800           0
      9704 TIP3     462      TIP3     OH2      OT      -0.834000       15.9994           0
      9705 TIP3     462      TIP3     H1       HT       0.417000       1.00800           0
      9706 TIP3     462      TIP3     H2       HT       0.417000       1.00800           0
      9707 TIP3     463      TIP3     OH2      OT      -0.834000       15.9994           0
      9708 TIP3     463      TIP3     H1       HT       0.417000       1.00800           0
      9709 TIP3     463      TIP3     H2       HT       0.417000       1.00800           0
      9710 TIP3     464      TIP3     OH2      OT      -0.834000       15.9994           0
      9711 TIP3     464      TIP3     H1       HT       0.417000       1.00800           0
      9712 TIP3     464      TIP3     H2       HT       0.417000       1.00800           0
      9713 TIP3     465      TIP3     OH2      OT      -0.834000       15.9994           0
      9714 TIP3     465      TIP3     H1       HT       0.417000       1.00800           0
      9715 TIP3     465      TIP3     H2       HT       0.417000       1.00800           0
      9716 TIP3     466      TIP3     OH2      OT      -0.834000       15.9994           0
      9717 TIP3     466      TIP3     H1       HT       0.417000       1.00800           0
      9718 TIP3     466      TIP3     H2       HT       0.417000       1.00800           0
      9719 TIP3     467      TIP3     OH2      OT      -0.834000       15.9994           0
      9720 TIP3     467      TIP3     H1       HT       0.417000       1.00800           0
      9721 TIP3     467      TIP3     H2       HT       0.417000       1.00800           0
      9722 TIP3     468      TIP3     OH2      OT      -0.834000       15.9994           0
      9723 TIP3     468      TIP3     H1       HT       0.417000       1.00800           0
      9724 TIP3     468      TIP3     H2       HT       0.417000       1.00800           0
      9725 TIP3     469      TIP3     OH2      OT      -0.834000       15.9994           0
      9726 TIP3     469      TIP3     H1       HT       0.417000       1.00800           0
      9727 TIP3     469      TIP3     H2       HT       0.417000       1.00800           0
      9728 TIP3     470      TIP3     OH2      OT      -0.834000       15.9994           0
      9729 TIP3     470      TIP3     H1       HT       0.417000       1.00800           0
      9730 TIP3     470      TIP3     H2       HT       0.417000       1.00800           0
      9731 TIP3     471      TIP3     OH2      OT      -0.834000       15.9994           0
      9732 TIP3     471      TIP3     H1       HT       0.417000       1.00800           0
      9733 TIP3     471      TIP3     H2       HT       0.417000       1.00800           0
      9734 TIP3     472      TIP3     OH2      OT      -0.834000       15.9994           0
      9735 TIP3     472      TIP3     H1       HT       0.417000       1.00800           0
      9736 TIP3     472      TIP3     H2       HT       0.417000       1.00800           0
      9737 TIP3     473      TIP3     OH2      OT      -0.834000       15.9994           0
      9738 TIP3     473      TIP3     H1       HT       0.417000       1.00800           0
      9739 TIP3     473      TIP3     H2       HT       0.417000       1.00800           0
      9740 TIP3     474      TIP3     OH2      OT      -0.834000       15.9994           0
      9741 TIP3     474      TIP3     H1       HT       0.417000       1.00800           0
      9742 TIP3     474      TIP3     H2       HT       0.417000       1.00800           0
      9743 TIP3     475      TIP3     OH2      OT      -0.834000       15.9994           0
      9744 TIP3     475      TIP3     H1       HT       0.417000       1.00800           0
      9745 TIP3     475      TIP3     H2       HT       0.417000       1.00800           0
      9746 TIP3     476      TIP3     OH2      OT      -0.834000       15.9994           0
      9747 TIP3     476      TIP3     H1       HT       0.417000       1.00800           0
      9748 TIP3     476      TIP3     H2       HT       0.417000       1.00800           0
      9749 TIP3     477      TIP3     OH2      OT      -0.834000       15.9994           0
      9750 TIP3     477      TIP3     H1       HT       0.417000       1.00800           0
      9751 TIP3     477      TIP3     H2       HT       0.417000       1.00800           0
      9752 TIP3     478      TIP3     OH2      OT      -0.834000       15.9994           0
      9753 TIP3     478      TIP3     H1       HT       0.417000       1.00800           0
      9754 TIP3     478      TIP3     H2       HT       0.417000       1.00800           0
      9755 TIP3     479      TIP3     OH2      OT      -0.834000       15.9994           0
      9756 TIP3     479      TIP3     H1       HT       0.417000       1.00800           0
      9757 TIP3     479      TIP3     H2       HT       0.417000       1.00800           0
      9758 TIP3     480      TIP3     OH2      OT      -0.834000       15.9994           0
      9759 TIP3     480      TIP3     H1       HT       0.417000       1.00800           0
      9760 TIP3     480      TIP3     H2       HT       0.417000       1.00800           0
      9761 TIP3     481      TIP3     OH2      OT      -0.834000       15.9994           0
      9762 TIP3     481      TIP3     H1       HT       0.417000       1.00800           0
      9763 TIP3     481      TIP3     H2       HT       0.417000       1.00800           0
      9764 TIP3     482      TIP3     OH2      OT      -0.834000       15.9994           0
      9765 TIP3     482      TIP3     H1       HT       0.417000       1.00800           0
      9766 TIP3     482      TIP3     H2       HT       0.417000       1.00800           0
      9767 TIP3     483      TIP3     OH2      OT      -0.834000       15.9994           0
      9768 TIP3     483      TIP3     H1       HT       0.417000       1.00800           0
      9769 TIP3     483      TIP3     H2       HT       0.417000       1.00800           0
      9770 TIP3     484      TIP3     OH2      OT      -0.834000       15.9994           0
      9771 TIP3     484      TIP3     H1       HT       0.417000       1.00800           0
      9772 TIP3     484      TIP3     H2       HT       0.417000       1.00800           0
      9773 TIP3     485      TIP3     OH2      OT      -0.834000       15.9994           0
      9774 TIP3     485      TIP3     H1       HT       0.417000       1.00800           0
      9775 TIP3     485      TIP3     H2       HT       0.417000       1.00800           0
      9776 TIP3     486      TIP3     OH2      OT      -0.834000       15.9994           0
      9777 TIP3     486      TIP3     H1       HT       0.417000       1.00800           0
      9778 TIP3     486      TIP3     H2       HT       0.417000       1.00800           0
      9779 TIP3     487      TIP3     OH2      OT      -0.834000       15.9994           0
      9780 TIP3     487      TIP3     H1       HT       0.417000       1.00800           0
      9781 TIP3     487      TIP3     H2       HT       0.417000       1.00800           0
      9782 TIP3     488      TIP3     OH2      OT      -0.834000       15.9994           0
      9783 TIP3     488      TIP3     H1       HT       0.417000       1.00800           0
      9784 TIP3     488      TIP3     H2       HT       0.417000       1.00800           0
      9785 TIP3     489      TIP3     OH2      OT      -0.834000       15.9994           0
      9786 TIP3     489      TIP3     H1       HT       0.417000       1.00800           0
      9787 TIP3     489      TIP3     H2       HT       0.417000       1.00800           0
      9788 TIP3     490      TIP3     OH2      OT      -0.834000       15.9994           0
      9789 TIP3     490      TIP3     H1       HT       0.417000       1.00800           0
      9790 TIP3     490      TIP3     H2       HT       0.417000       1.00800           0
      9791 TIP3     491      TIP3     OH2      OT      -0.834000       15.9994           0
      9792 TIP3     491      TIP3     H1       HT       0.417000       1.00800           0
      9793 TIP3     491      TIP3     H2       HT       0.417000       1.00800           0
      9794 TIP3     492      TIP3     OH2      OT      -0.834000       15.9994           0
      9795 TIP3     492      TIP3     H1       HT       0.417000       1.00800           0
      9796 TIP3     492      TIP3     H2       HT       0.417000       1.00800           0
      9797 TIP3     493      TIP3     OH2      OT      -0.834000       15.9994           0
      9798 TIP3     493      TIP3     H1       HT       0.417000       1.00800           0
      9799 TIP3     493      TIP3     H2       HT       0.417000       1.00800           0
      9800 TIP3     494      TIP3     OH2      OT      -0.834000       15.9994           0
      9801 TIP3     494      TIP3     H1       HT       0.417000       1.00800           0
      9802 TIP3     494      TIP3     H2       HT       0.417000       1.00800           0
      9803 TIP3     495      TIP3     OH2      OT      -0.834000       15.9994           0
      9804 TIP3     495      TIP3     H1       HT       0.417000       1.00800           0
      9805 TIP3     495      TIP3     H2       HT       0.417000       1.00800           0
      9806 TIP3     496      TIP3     OH2      OT      -0.834000       15.9994           0
      9807 TIP3     496      TIP3     H1       HT       0.417000       1.00800           0
      9808 TIP3     496      TIP3     H2       HT       0.417000       1.00800           0
      9809 TIP3     497      TIP3     OH2      OT      -0.834000       15.9994           0
      9810 TIP3     497      TIP3     H1       HT       0.417000       1.00800           0
      9811 TIP3     497      TIP3     H2       HT       0.417000       1.00800           0
      9812 TIP3     498      TIP3     OH2      OT      -0.834000       15.9994           0
      9813 TIP3     498      TIP3     H1       HT       0.417000       1.00800           0
      9814 TIP3     498      TIP3     H2       HT       0.417000       1.00800           0
      9815 TIP3     499      TIP3     OH2      OT      -0.834000       15.9994           0
      9816 TIP3     499      TIP3     H1       HT       0.417000       1.00800           0
      9817 TIP3     499      TIP3     H2       HT       0.417000       1.00800           0
      9818 TIP3     500      TIP3     OH2      OT      -0.834000       15.9994           0
      9819 TIP3     500      TIP3     H1       HT       0.417000       1.00800           0
      9820 TIP3     500      TIP3     H2       HT       0.417000       1.00800           0
      9821 TIP3     501      TIP3     OH2      OT      -0.834000       15.9994           0
      9822 TIP3     501      TIP3     H1       HT       0.417000       1.00800           0
      9823 TIP3     501      TIP3     H2       HT       0.417000       1.00800           0
      9824 TIP3     502      TIP3     OH2      OT      -0.834000       15.9994           0
      9825 TIP3     502      TIP3     H1       HT       0.417000       1.00800           0
      9826 TIP3     502      TIP3     H2       HT       0.417000       1.00800           0
      9827 TIP3     503      TIP3     OH2      OT      -0.834000       15.9994           0
      9828 TIP3     503      TIP3     H1       HT       0.417000       1.00800           0
      9829 TIP3     503      TIP3     H2       HT       0.417000       1.00800           0
      9830 TIP3     504      TIP3     OH2      OT      -0.834000       15.9994           0
      9831 TIP3     504      TIP3     H1       HT       0.417000       1.00800           0
      9832 TIP3     504      TIP3     H2       HT       0.417000       1.00800           0
      9833 TIP3     505      TIP3     OH2      OT      -0.834000       15.9994           0
      9834 TIP3     505      TIP3     H1       HT       0.417000       1.00800           0
      9835 TIP3     505      TIP3     H2       HT       0.417000       1.00800           0
      9836 TIP3     506      TIP3     OH2      OT      -0.834000       15.9994           0
      9837 TIP3     506      TIP3     H1       HT       0.417000       1.00800           0
      9838 TIP3     506      TIP3     H2       HT       0.417000       1.00800           0
      9839 TIP3     507      TIP3     OH2      OT      -0.834000       15.9994           0
      9840 TIP3     507      TIP3     H1       HT       0.417000       1.00800           0
      9841 TIP3     507      TIP3     H2       HT       0.417000       1.00800           0
      9842 TIP3     508      TIP3     OH2      OT      -0.834000       15.9994           0
      9843 TIP3     508      TIP3     H1       HT       0.417000       1.00800           0
      9844 TIP3     508      TIP3     H2       HT       0.417000       1.00800           0
      9845 TIP3     509      TIP3     OH2      OT      -0.834000       15.9994           0
      9846 TIP3     509      TIP3     H1       HT       0.417000       1.00800           0
      9847 TIP3     509      TIP3     H2       HT       0.417000       1.00800           0
      9848 TIP3     510      TIP3     OH2      OT      -0.834000       15.9994           0
      9849 TIP3     510      TIP3     H1       HT       0.417000       1.00800           0
      9850 TIP3     510      TIP3     H2       HT       0.417000       1.00800           0
      9851 TIP3     511      TIP3     OH2      OT      -0.834000       15.9994           0
      9852 TIP3     511      TIP3     H1       HT       0.417000       1.00800           0
      9853 TIP3     511      TIP3     H2       HT       0.417000       1.00800           0
      9854 TIP3     512      TIP3     OH2      OT      -0.834000       15.9994           0
      9855 TIP3     512      TIP3     H1       HT       0.417000       1.00800           0
      9856 TIP3     512      TIP3     H2       HT       0.417000       1.00800           0
      9857 TIP3     513      TIP3     OH2      OT      -0.834000       15.9994           0
      9858 TIP3     513      TIP3     H1       HT       0.417000       1.00800           0
      9859 TIP3     513      TIP3     H2       HT       0.417000       1.00800           0
      9860 TIP3     514      TIP3     OH2      OT      -0.834000       15.9994           0
      9861 TIP3     514      TIP3     H1       HT       0.417000       1.00800           0
      9862 TIP3     514      TIP3     H2       HT       0.417000       1.00800           0
      9863 TIP3     515      TIP3     OH2      OT      -0.834000       15.9994           0
      9864 TIP3     515      TIP3     H1       HT       0.417000       1.00800           0
      9865 TIP3     515      TIP3     H2       HT       0.417000       1.00800           0
      9866 TIP3     516      TIP3     OH2      OT      -0.834000       15.9994           0
      9867 TIP3     516      TIP3     H1       HT       0.417000       1.00800           0
      9868 TIP3     516      TIP3     H2       HT       0.417000       1.00800           0
      9869 TIP3     517      TIP3     OH2      OT      -0.834000       15.9994           0
      9870 TIP3     517      TIP3     H1       HT       0.417000       1.00800           0
      9871 TIP3     517      TIP3     H2       HT       0.417000       1.00800           0
      9872 TIP3     518      TIP3     OH2      OT      -0.834000       15.9994           0
      9873 TIP3     518      TIP3     H1       HT       0.417000       1.00800           0
      9874 TIP3     518      TIP3     H2       HT       0.417000       1.00800           0
      9875 TIP3     519      TIP3     OH2      OT      -0.834000       15.9994           0
      9876 TIP3     519      TIP3     H1       HT       0.417000       1.00800           0
      9877 TIP3     519      TIP3     H2       HT       0.417000       1.00800           0
      9878 TIP3     520      TIP3     OH2      OT      -0.834000       15.9994           0
      9879 TIP3     520      TIP3     H1       HT       0.417000       1.00800           0
      9880 TIP3     520      TIP3     H2       HT       0.417000       1.00800           0
      9881 TIP3     521      TIP3     OH2      OT      -0.834000       15.9994           0
      9882 TIP3     521      TIP3     H1       HT       0.417000       1.00800           0
      9883 TIP3     521      TIP3     H2       HT       0.417000       1.00800           0
      9884 TIP3     522      TIP3     OH2      OT      -0.834000       15.9994           0
      9885 TIP3     522      TIP3     H1       HT       0.417000       1.00800           0
      9886 TIP3     522      TIP3     H2       HT       0.417000       1.00800           0
      9887 TIP3     523      TIP3     OH2      OT      -0.834000       15.9994           0
      9888 TIP3     523      TIP3     H1       HT       0.417000       1.00800           0
      9889 TIP3     523      TIP3     H2       HT       0.417000       1.00800           0
      9890 TIP3     524      TIP3     OH2      OT      -0.834000       15.9994           0
      9891 TIP3     524      TIP3     H1       HT       0.417000       1.00800           0
      9892 TIP3     524      TIP3     H2       HT       0.417000       1.00800           0
      9893 TIP3     525      TIP3     OH2      OT      -0.834000       15.9994           0
      9894 TIP3     525      TIP3     H1       HT       0.417000       1.00800           0
      9895 TIP3     525      TIP3     H2       HT       0.417000       1.00800           0
      9896 TIP3     526      TIP3     OH2      OT      -0.834000       15.9994           0
      9897 TIP3     526      TIP3     H1       HT       0.417000       1.00800           0
      9898 TIP3     526      TIP3     H2       HT       0.417000       1.00800           0
      9899 TIP3     527      TIP3     OH2      OT      -0.834000       15.9994           0
      9900 TIP3     527      TIP3     H1       HT       0.417000       1.00800           0
      9901 TIP3     527      TIP3     H2       HT       0.417000       1.00800           0
      9902 TIP3     528      TIP3     OH2      OT      -0.834000       15.9994           0
      9903 TIP3     528      TIP3     H1       HT       0.417000       1.00800           0
      9904 TIP3     528      TIP3     H2       HT       0.417000       1.00800           0
      9905 TIP3     529      TIP3     OH2      OT      -0.834000       15.9994           0
      9906 TIP3     529      TIP3     H1       HT       0.417000       1.00800           0
      9907 TIP3     529      TIP3     H2       HT       0.417000       1.00800           0
      9908 TIP3     530      TIP3     OH2      OT      -0.834000       15.9994           0
      9909 TIP3     530      TIP3     H1       HT       0.417000       1.00800           0
      9910 TIP3     530      TIP3     H2       HT       0.417000       1.00800           0
      9911 TIP3     531      TIP3     OH2      OT      -0.834000       15.9994           0
      9912 TIP3     531      TIP3     H1       HT       0.417000       1.00800           0
      9913 TIP3     531      TIP3     H2       HT       0.417000       1.00800           0
      9914 TIP3     532      TIP3     OH2      OT      -0.834000       15.9994           0
      9915 TIP3     532      TIP3     H1       HT       0.417000       1.00800           0
      9916 TIP3     532      TIP3     H2       HT       0.417000       1.00800           0
      9917 TIP3     533      TIP3     OH2      OT      -0.834000       15.9994           0
      9918 TIP3     533      TIP3     H1       HT       0.417000       1.00800           0
      9919 TIP3     533      TIP3     H2       HT       0.417000       1.00800           0
      9920 TIP3     534      TIP3     OH2      OT      -0.834000       15.9994           0
      9921 TIP3     534      TIP3     H1       HT       0.417000       1.00800           0
      9922 TIP3     534      TIP3     H2       HT       0.417000       1.00800           0
      9923 TIP3     535      TIP3     OH2      OT      -0.834000       15.9994           0
      9924 TIP3     535      TIP3     H1       HT       0.417000       1.00800           0
      9925 TIP3     535      TIP3     H2       HT       0.417000       1.00800           0
      9926 TIP3     536      TIP3     OH2      OT      -0.834000       15.9994           0
      9927 TIP3     536      TIP3     H1       HT       0.417000       1.00800           0
      9928 TIP3     536      TIP3     H2       HT       0.417000       1.00800           0
      9929 TIP3     537      TIP3     OH2      OT      -0.834000       15.9994           0
      9930 TIP3     537      TIP3     H1       HT       0.417000       1.00800           0
      9931 TIP3     537      TIP3     H2       HT       0.417000       1.00800           0
      9932 TIP3     538      TIP3     OH2      OT      -0.834000       15.9994           0
      9933 TIP3     538      TIP3     H1       HT       0.417000       1.00800           0
      9934 TIP3     538      TIP3     H2       HT       0.417000       1.00800           0
      9935 TIP3     539      TIP3     OH2      OT      -0.834000       15.9994           0
      9936 TIP3     539      TIP3     H1       HT       0.417000       1.00800           0
      9937 TIP3     539      TIP3     H2       HT       0.417000       1.00800           0
      9938 TIP3     540      TIP3     OH2      OT      -0.834000       15.9994           0
      9939 TIP3     540      TIP3     H1       HT       0.417000       1.00800           0
      9940 TIP3     540      TIP3     H2       HT       0.417000       1.00800           0
      9941 TIP3     541      TIP3     OH2      OT      -0.834000       15.9994           0
      9942 TIP3     541      TIP3     H1       HT       0.417000       1.00800           0
      9943 TIP3     541      TIP3     H2       HT       0.417000       1.00800           0
      9944 TIP3     542      TIP3     OH2      OT      -0.834000       15.9994           0
      9945 TIP3     542      TIP3     H1       HT       0.417000       1.00800           0
      9946 TIP3     542      TIP3     H2       HT       0.417000       1.00800           0
      9947 TIP3     543      TIP3     OH2      OT      -0.834000       15.9994           0
      9948 TIP3     543      TIP3     H1       HT       0.417000       1.00800           0
      9949 TIP3     543      TIP3     H2       HT       0.417000       1.00800           0
      9950 TIP3     544      TIP3     OH2      OT      -0.834000       15.9994           0
      9951 TIP3     544      TIP3     H1       HT       0.417000       1.00800           0
      9952 TIP3     544      TIP3     H2       HT       0.417000       1.00800           0
      9953 TIP3     545      TIP3     OH2      OT      -0.834000       15.9994           0
      9954 TIP3     545      TIP3     H1       HT       0.417000       1.00800           0
      9955 TIP3     545      TIP3     H2       HT       0.417000       1.00800           0
      9956 TIP3     546      TIP3     OH2      OT      -0.834000       15.9994           0
      9957 TIP3     546      TIP3     H1       HT       0.417000       1.00800           0
      9958 TIP3     546      TIP3     H2       HT       0.417000       1.00800           0
      9959 TIP3     547      TIP3     OH2      OT      -0.834000       15.9994           0
      9960 TIP3     547      TIP3     H1       HT       0.417000       1.00800           0
      9961 TIP3     547      TIP3     H2       HT       0.417000       1.00800           0
      9962 TIP3     548      TIP3     OH2      OT      -0.834000       15.9994           0
      9963 TIP3     548      TIP3     H1       HT       0.417000       1.00800           0
      9964 TIP3     548      TIP3     H2       HT       0.417000       1.00800           0
      9965 TIP3     549      TIP3     OH2      OT      -0.834000       15.9994           0
      9966 TIP3     549      TIP3     H1       HT       0.417000       1.00800           0
      9967 TIP3     549      TIP3     H2       HT       0.417000       1.00800           0
      9968 TIP3     550      TIP3     OH2      OT      -0.834000       15.9994           0
      9969 TIP3     550      TIP3     H1       HT       0.417000       1.00800           0
      9970 TIP3     550      TIP3     H2       HT       0.417000       1.00800           0
      9971 TIP3     551      TIP3     OH2      OT      -0.834000       15.9994           0
      9972 TIP3     551      TIP3     H1       HT       0.417000       1.00800           0
      9973 TIP3     551      TIP3     H2       HT       0.417000       1.00800           0
      9974 TIP3     552      TIP3     OH2      OT      -0.834000       15.9994           0
      9975 TIP3     552      TIP3     H1       HT       0.417000       1.00800           0
      9976 TIP3     552      TIP3     H2       HT       0.417000       1.00800           0
      9977 TIP3     553      TIP3     OH2      OT      -0.834000       15.9994           0
      9978 TIP3     553      TIP3     H1       HT       0.417000       1.00800           0
      9979 TIP3     553      TIP3     H2       HT       0.417000       1.00800           0
      9980 TIP3     554      TIP3     OH2      OT      -0.834000       15.9994           0
      9981 TIP3     554      TIP3     H1       HT       0.417000       1.00800           0
      9982 TIP3     554      TIP3     H2       HT       0.417000       1.00800           0
      9983 TIP3     555      TIP3     OH2      OT      -0.834000       15.9994           0
      9984 TIP3     555      TIP3     H1       HT       0.417000       1.00800           0
      9985 TIP3     555      TIP3     H2       HT       0.417000       1.00800           0
      9986 TIP3     556      TIP3     OH2      OT      -0.834000       15.9994           0
      9987 TIP3     556      TIP3     H1       HT       0.417000       1.00800           0
      9988 TIP3     556      TIP3     H2       HT       0.417000       1.00800           0
      9989 TIP3     557      TIP3     OH2      OT      -0.834000       15.9994           0
      9990 TIP3     557      TIP3     H1       HT       0.417000       1.00800           0
      9991 TIP3     557      TIP3     H2       HT       0.417000       1.00800           0
      9992 TIP3     558      TIP3     OH2      OT      -0.834000       15.9994           0
      9993 TIP3     558      TIP3     H1       HT       0.417000       1.00800           0
      9994 TIP3     558      TIP3     H2       HT       0.417000       1.00800           0
      9995 TIP3     559      TIP3     OH2      OT      -0.834000       15.9994           0
      9996 TIP3     559      TIP3     H1       HT       0.417000       1.00800           0
      9997 TIP3     559      TIP3     H2       HT       0.417000       1.00800           0
      9998 TIP3     560      TIP3     OH2      OT      -0.834000       15.9994           0
      9999 TIP3     560      TIP3     H1       HT       0.417000       1.00800           0
     10000 TIP3     560      TIP3     H2       HT       0.417000       1.00800           0
     10001 TIP3     561      TIP3     OH2      OT      -0.834000       15.9994           0
     10002 TIP3     561      TIP3     H1       HT       0.417000       1.00800           0
     10003 TIP3     561      TIP3     H2       HT       0.417000       1.00800           0
     10004 TIP3     562      TIP3     OH2      OT      -0.834000       15.9994           0
     10005 TIP3     562      TIP3     H1       HT       0.417000       1.00800           0
     10006 TIP3     562      TIP3     H2       HT       0.417000       1.00800           0
     10007 TIP3     563      TIP3     OH2      OT      -0.834000       15.9994           0
     10008 TIP3     563      TIP3     H1       HT       0.417000       1.00800           0
     10009 TIP3     563      TIP3     H2       HT       0.417000       1.00800           0
     10010 TIP3     564      TIP3     OH2      OT      -0.834000       15.9994           0
     10011 TIP3     564      TIP3     H1       HT       0.417000       1.00800           0
     10012 TIP3     564      TIP3     H2       HT       0.417000       1.00800           0
     10013 TIP3     565      TIP3     OH2      OT      -0.834000       15.9994           0
     10014 TIP3     565      TIP3     H1       HT       0.417000       1.00800           0
     10015 TIP3     565      TIP3     H2       HT       0.417000       1.00800           0
     10016 TIP3     566      TIP3     OH2      OT      -0.834000       15.9994           0
     10017 TIP3     566      TIP3     H1       HT       0.417000       1.00800           0
     10018 TIP3     566      TIP3     H2       HT       0.417000       1.00800           0
     10019 TIP3     567      TIP3     OH2      OT      -0.834000       15.9994           0
     10020 TIP3     567      TIP3     H1       HT       0.417000       1.00800           0
     10021 TIP3     567      TIP3     H2       HT       0.417000       1.00800           0
     10022 TIP3     568      TIP3     OH2      OT      -0.834000       15.9994           0
     10023 TIP3     568      TIP3     H1       HT       0.417000       1.00800           0
     10024 TIP3     568      TIP3     H2       HT       0.417000       1.00800           0
     10025 TIP3     569      TIP3     OH2      OT      -0.834000       15.9994           0
     10026 TIP3     569      TIP3     H1       HT       0.417000       1.00800           0
     10027 TIP3     569      TIP3     H2       HT       0.417000       1.00800           0
     10028 TIP3     570      TIP3     OH2      OT      -0.834000       15.9994           0
     10029 TIP3     570      TIP3     H1       HT       0.417000       1.00800           0
     10030 TIP3     570      TIP3     H2       HT       0.417000       1.00800           0
     10031 TIP3     571      TIP3     OH2      OT      -0.834000       15.9994           0
     10032 TIP3     571      TIP3     H1       HT       0.417000       1.00800           0
     10033 TIP3     571      TIP3     H2       HT       0.417000       1.00800           0
     10034 TIP3     572      TIP3     OH2      OT      -0.834000       15.9994           0
     10035 TIP3     572      TIP3     H1       HT       0.417000       1.00800           0
     10036 TIP3     572      TIP3     H2       HT       0.417000       1.00800           0
     10037 TIP3     573      TIP3     OH2      OT      -0.834000       15.9994           0
     10038 TIP3     573      TIP3     H1       HT       0.417000       1.00800           0
     10039 TIP3     573      TIP3     H2       HT       0.417000       1.00800           0
     10040 TIP3     574      TIP3     OH2      OT      -0.834000       15.9994           0
     10041 TIP3     574      TIP3     H1       HT       0.417000       1.00800           0
     10042 TIP3     574      TIP3     H2       HT       0.417000       1.00800           0
     10043 TIP3     575      TIP3     OH2      OT      -0.834000       15.9994           0
     10044 TIP3     575      TIP3     H1       HT       0.417000       1.00800           0
     10045 TIP3     575      TIP3     H2       HT       0.417000       1.00800           0
     10046 TIP3     576      TIP3     OH2      OT      -0.834000       15.9994           0
     10047 TIP3     576      TIP3     H1       HT       0.417000       1.00800           0
     10048 TIP3     576      TIP3     H2       HT       0.417000       1.00800           0
     10049 TIP3     577      TIP3     OH2      OT      -0.834000       15.9994           0
     10050 TIP3     577      TIP3     H1       HT       0.417000       1.00800           0
     10051 TIP3     577      TIP3     H2       HT       0.417000       1.00800           0
     10052 TIP3     578      TIP3     OH2      OT      -0.834000       15.9994           0
     10053 TIP3     578      TIP3     H1       HT       0.417000       1.00800           0
     10054 TIP3     578      TIP3     H2       HT       0.417000       1.00800           0
     10055 TIP3     579      TIP3     OH2      OT      -0.834000       15.9994           0
     10056 TIP3     579      TIP3     H1       HT       0.417000       1.00800           0
     10057 TIP3     579      TIP3     H2       HT       0.417000       1.00800           0
     10058 TIP3     580      TIP3     OH2      OT      -0.834000       15.9994           0
     10059 TIP3     580      TIP3     H1       HT       0.417000       1.00800           0
     10060 TIP3     580      TIP3     H2       HT       0.417000       1.00800           0
     10061 TIP3     581      TIP3     OH2      OT      -0.834000       15.9994           0
     10062 TIP3     581      TIP3     H1       HT       0.417000       1.00800           0
     10063 TIP3     581      TIP3     H2       HT       0.417000       1.00800           0
     10064 TIP3     582      TIP3     OH2      OT      -0.834000       15.9994           0
     10065 TIP3     582      TIP3     H1       HT       0.417000       1.00800           0
     10066 TIP3     582      TIP3     H2       HT       0.417000       1.00800           0
     10067 TIP3     583      TIP3     OH2      OT      -0.834000       15.9994           0
     10068 TIP3     583      TIP3     H1       HT       0.417000       1.00800           0
     10069 TIP3     583      TIP3     H2       HT       0.417000       1.00800           0
     10070 TIP3     584      TIP3     OH2      OT      -0.834000       15.9994           0
     10071 TIP3     584      TIP3     H1       HT       0.417000       1.00800           0
     10072 TIP3     584      TIP3     H2       HT       0.417000       1.00800           0
     10073 TIP3     585      TIP3     OH2      OT      -0.834000       15.9994           0
     10074 TIP3     585      TIP3     H1       HT       0.417000       1.00800           0
     10075 TIP3     585      TIP3     H2       HT       0.417000       1.00800           0
     10076 TIP3     586      TIP3     OH2      OT      -0.834000       15.9994           0
     10077 TIP3     586      TIP3     H1       HT       0.417000       1.00800           0
     10078 TIP3     586      TIP3     H2       HT       0.417000       1.00800           0
     10079 TIP3     587      TIP3     OH2      OT      -0.834000       15.9994           0
     10080 TIP3     587      TIP3     H1       HT       0.417000       1.00800           0
     10081 TIP3     587      TIP3     H2       HT       0.417000       1.00800           0
     10082 TIP3     588      TIP3     OH2      OT      -0.834000       15.9994           0
     10083 TIP3     588      TIP3     H1       HT       0.417000       1.00800           0
     10084 TIP3     588      TIP3     H2       HT       0.417000       1.00800           0
     10085 TIP3     589      TIP3     OH2      OT      -0.834000       15.9994           0
     10086 TIP3     589      TIP3     H1       HT       0.417000       1.00800           0
     10087 TIP3     589      TIP3     H2       HT       0.417000       1.00800           0
     10088 TIP3     590      TIP3     OH2      OT      -0.834000       15.9994           0
     10089 TIP3     590      TIP3     H1       HT       0.417000       1.00800           0
     10090 TIP3     590      TIP3     H2       HT       0.417000       1.00800           0
     10091 TIP3     591      TIP3     OH2      OT      -0.834000       15.9994           0
     10092 TIP3     591      TIP3     H1       HT       0.417000       1.00800           0
     10093 TIP3     591      TIP3     H2       HT       0.417000       1.00800           0
     10094 TIP3     592      TIP3     OH2      OT      -0.834000       15.9994           0
     10095 TIP3     592      TIP3     H1       HT       0.417000       1.00800           0
     10096 TIP3     592      TIP3     H2       HT       0.417000       1.00800           0
     10097 TIP3     593      TIP3     OH2      OT      -0.834000       15.9994           0
     10098 TIP3     593      TIP3     H1       HT       0.417000       1.00800           0
     10099 TIP3     593      TIP3     H2       HT       0.417000       1.00800           0
     10100 TIP3     594      TIP3     OH2      OT      -0.834000       15.9994           0
     10101 TIP3     594      TIP3     H1       HT       0.417000       1.00800           0
     10102 TIP3     594      TIP3     H2       HT       0.417000       1.00800           0
     10103 TIP3     595      TIP3     OH2      OT      -0.834000       15.9994           0
     10104 TIP3     595      TIP3     H1       HT       0.417000       1.00800           0
     10105 TIP3     595      TIP3     H2       HT       0.417000       1.00800           0
     10106 TIP3     596      TIP3     OH2      OT      -0.834000       15.9994           0
     10107 TIP3     596      TIP3     H1       HT       0.417000       1.00800           0
     10108 TIP3     596      TIP3     H2       HT       0.417000       1.00800           0
     10109 TIP3     597      TIP3     OH2      OT      -0.834000       15.9994           0
     10110 TIP3     597      TIP3     H1       HT       0.417000       1.00800           0
     10111 TIP3     597      TIP3     H2       HT       0.417000       1.00800           0
     10112 TIP3     598      TIP3     OH2      OT      -0.834000       15.9994           0
     10113 TIP3     598      TIP3     H1       HT       0.417000       1.00800           0
     10114 TIP3     598      TIP3     H2       HT       0.417000       1.00800           0
     10115 TIP3     599      TIP3     OH2      OT      -0.834000       15.9994           0
     10116 TIP3     599      TIP3     H1       HT       0.417000       1.00800           0
     10117 TIP3     599      TIP3     H2       HT       0.417000       1.00800           0
     10118 TIP3     600      TIP3     OH2      OT      -0.834000       15.9994           0
     10119 TIP3     600      TIP3     H1       HT       0.417000       1.00800           0
     10120 TIP3     600      TIP3     H2       HT       0.417000       1.00800           0
     10121 TIP3     601      TIP3     OH2      OT      -0.834000       15.9994           0
     10122 TIP3     601      TIP3     H1       HT       0.417000       1.00800           0
     10123 TIP3     601      TIP3     H2       HT       0.417000       1.00800           0
     10124 TIP3     602      TIP3     OH2      OT      -0.834000       15.9994           0
     10125 TIP3     602      TIP3     H1       HT       0.417000       1.00800           0
     10126 TIP3     602      TIP3     H2       HT       0.417000       1.00800           0
     10127 TIP3     603      TIP3     OH2      OT      -0.834000       15.9994           0
     10128 TIP3     603      TIP3     H1       HT       0.417000       1.00800           0
     10129 TIP3     603      TIP3     H2       HT       0.417000       1.00800           0
     10130 TIP3     604      TIP3     OH2      OT      -0.834000       15.9994           0
     10131 TIP3     604      TIP3     H1       HT       0.417000       1.00800           0
     10132 TIP3     604      TIP3     H2       HT       0.417000       1.00800           0
     10133 TIP3     605      TIP3     OH2      OT      -0.834000       15.9994           0
     10134 TIP3     605      TIP3     H1       HT       0.417000       1.00800           0
     10135 TIP3     605      TIP3     H2       HT       0.417000       1.00800           0
     10136 TIP3     606      TIP3     OH2      OT      -0.834000       15.9994           0
     10137 TIP3     606      TIP3     H1       HT       0.417000       1.00800           0
     10138 TIP3     606      TIP3     H2       HT       0.417000       1.00800           0
     10139 TIP3     607      TIP3     OH2      OT      -0.834000       15.9994           0
     10140 TIP3     607      TIP3     H1       HT       0.417000       1.00800           0
     10141 TIP3     607      TIP3     H2       HT       0.417000       1.00800           0
     10142 TIP3     608      TIP3     OH2      OT      -0.834000       15.9994           0
     10143 TIP3     608      TIP3     H1       HT       0.417000       1.00800           0
     10144 TIP3     608      TIP3     H2       HT       0.417000       1.00800           0
     10145 TIP3     609      TIP3     OH2      OT      -0.834000       15.9994           0
     10146 TIP3     609      TIP3     H1       HT       0.417000       1.00800           0
     10147 TIP3     609      TIP3     H2       HT       0.417000       1.00800           0
     10148 TIP3     610      TIP3     OH2      OT      -0.834000       15.9994           0
     10149 TIP3     610      TIP3     H1       HT       0.417000       1.00800           0
     10150 TIP3     610      TIP3     H2       HT       0.417000       1.00800           0
     10151 TIP3     611      TIP3     OH2      OT      -0.834000       15.9994           0
     10152 TIP3     611      TIP3     H1       HT       0.417000       1.00800           0
     10153 TIP3     611      TIP3     H2       HT       0.417000       1.00800           0
     10154 TIP3     612      TIP3     OH2      OT      -0.834000       15.9994           0
     10155 TIP3     612      TIP3     H1       HT       0.417000       1.00800           0
     10156 TIP3     612      TIP3     H2       HT       0.417000       1.00800           0
     10157 TIP3     613      TIP3     OH2      OT      -0.834000       15.9994           0
     10158 TIP3     613      TIP3     H1       HT       0.417000       1.00800           0
     10159 TIP3     613      TIP3     H2       HT       0.417000       1.00800           0
     10160 TIP3     614      TIP3     OH2      OT      -0.834000       15.9994           0
     10161 TIP3     614      TIP3     H1       HT       0.417000       1.00800           0
     10162 TIP3     614      TIP3     H2       HT       0.417000       1.00800           0
     10163 TIP3     615      TIP3     OH2      OT      -0.834000       15.9994           0
     10164 TIP3     615      TIP3     H1       HT       0.417000       1.00800           0
     10165 TIP3     615      TIP3     H2       HT       0.417000       1.00800           0
     10166 TIP3     616      TIP3     OH2      OT      -0.834000       15.9994           0
     10167 TIP3     616      TIP3     H1       HT       0.417000       1.00800           0
     10168 TIP3     616      TIP3     H2       HT       0.417000       1.00800           0
     10169 TIP3     617      TIP3     OH2      OT      -0.834000       15.9994           0
     10170 TIP3     617      TIP3     H1       HT       0.417000       1.00800           0
     10171 TIP3     617      TIP3     H2       HT       0.417000       1.00800           0
     10172 TIP3     618      TIP3     OH2      OT      -0.834000       15.9994           0
     10173 TIP3     618      TIP3     H1       HT       0.417000       1.00800           0
     10174 TIP3     618      TIP3     H2       HT       0.417000       1.00800           0
     10175 TIP3     619      TIP3     OH2      OT      -0.834000       15.9994           0
     10176 TIP3     619      TIP3     H1       HT       0.417000       1.00800           0
     10177 TIP3     619      TIP3     H2       HT       0.417000       1.00800           0
     10178 TIP3     620      TIP3     OH2      OT      -0.834000       15.9994           0
     10179 TIP3     620      TIP3     H1       HT       0.417000       1.00800           0
     10180 TIP3     620      TIP3     H2       HT       0.417000       1.00800           0
     10181 TIP3     621      TIP3     OH2      OT      -0.834000       15.9994           0
     10182 TIP3     621      TIP3     H1       HT       0.417000       1.00800           0
     10183 TIP3     621      TIP3     H2       HT       0.417000       1.00800           0
     10184 TIP3     622      TIP3     OH2      OT      -0.834000       15.9994           0
     10185 TIP3     622      TIP3     H1       HT       0.417000       1.00800           0
     10186 TIP3     622      TIP3     H2       HT       0.417000       1.00800           0
     10187 TIP3     623      TIP3     OH2      OT      -0.834000       15.9994           0
     10188 TIP3     623      TIP3     H1       HT       0.417000       1.00800           0
     10189 TIP3     623      TIP3     H2       HT       0.417000       1.00800           0
     10190 TIP3     624      TIP3     OH2      OT      -0.834000       15.9994           0
     10191 TIP3     624      TIP3     H1       HT       0.417000       1.00800           0
     10192 TIP3     624      TIP3     H2       HT       0.417000       1.00800           0
     10193 TIP3     625      TIP3     OH2      OT      -0.834000       15.9994           0
     10194 TIP3     625      TIP3     H1       HT       0.417000       1.00800           0
     10195 TIP3     625      TIP3     H2       HT       0.417000       1.00800           0
     10196 TIP3     626      TIP3     OH2      OT      -0.834000       15.9994           0
     10197 TIP3     626      TIP3     H1       HT       0.417000       1.00800           0
     10198 TIP3     626      TIP3     H2       HT       0.417000       1.00800           0
     10199 TIP3     627      TIP3     OH2      OT      -0.834000       15.9994           0
     10200 TIP3     627      TIP3     H1       HT       0.417000       1.00800           0
     10201 TIP3     627      TIP3     H2       HT       0.417000       1.00800           0
     10202 TIP3     628      TIP3     OH2      OT      -0.834000       15.9994           0
     10203 TIP3     628      TIP3     H1       HT       0.417000       1.00800           0
     10204 TIP3     628      TIP3     H2       HT       0.417000       1.00800           0
     10205 TIP3     629      TIP3     OH2      OT      -0.834000       15.9994           0
     10206 TIP3     629      TIP3     H1       HT       0.417000       1.00800           0
     10207 TIP3     629      TIP3     H2       HT       0.417000       1.00800           0
     10208 TIP3     630      TIP3     OH2      OT      -0.834000       15.9994           0
     10209 TIP3     630      TIP3     H1       HT       0.417000       1.00800           0
     10210 TIP3     630      TIP3     H2       HT       0.417000       1.00800           0
     10211 TIP3     631      TIP3     OH2      OT      -0.834000       15.9994           0
     10212 TIP3     631      TIP3     H1       HT       0.417000       1.00800           0
     10213 TIP3     631      TIP3     H2       HT       0.417000       1.00800           0
     10214 TIP3     632      TIP3     OH2      OT      -0.834000       15.9994           0
     10215 TIP3     632      TIP3     H1       HT       0.417000       1.00800           0
     10216 TIP3     632      TIP3     H2       HT       0.417000       1.00800           0
     10217 TIP3     633      TIP3     OH2      OT      -0.834000       15.9994           0
     10218 TIP3     633      TIP3     H1       HT       0.417000       1.00800           0
     10219 TIP3     633      TIP3     H2       HT       0.417000       1.00800           0
     10220 TIP3     634      TIP3     OH2      OT      -0.834000       15.9994           0
     10221 TIP3     634      TIP3     H1       HT       0.417000       1.00800           0
     10222 TIP3     634      TIP3     H2       HT       0.417000       1.00800           0
     10223 TIP3     635      TIP3     OH2      OT      -0.834000       15.9994           0
     10224 TIP3     635      TIP3     H1       HT       0.417000       1.00800           0
     10225 TIP3     635      TIP3     H2       HT       0.417000       1.00800           0
     10226 TIP3     636      TIP3     OH2      OT      -0.834000       15.9994           0
     10227 TIP3     636      TIP3     H1       HT       0.417000       1.00800           0
     10228 TIP3     636      TIP3     H2       HT       0.417000       1.00800           0
     10229 TIP3     637      TIP3     OH2      OT      -0.834000       15.9994           0
     10230 TIP3     637      TIP3     H1       HT       0.417000       1.00800           0
     10231 TIP3     637      TIP3     H2       HT       0.417000       1.00800           0
     10232 TIP3     638      TIP3     OH2      OT      -0.834000       15.9994           0
     10233 TIP3     638      TIP3     H1       HT       0.417000       1.00800           0
     10234 TIP3     638      TIP3     H2       HT       0.417000       1.00800           0
     10235 TIP3     639      TIP3     OH2      OT      -0.834000       15.9994           0
     10236 TIP3     639      TIP3     H1       HT       0.417000       1.00800           0
     10237 TIP3     639      TIP3     H2       HT       0.417000       1.00800           0
     10238 TIP3     640      TIP3     OH2      OT      -0.834000       15.9994           0
     10239 TIP3     640      TIP3     H1       HT       0.417000       1.00800           0
     10240 TIP3     640      TIP3     H2       HT       0.417000       1.00800           0
     10241 TIP3     641      TIP3     OH2      OT      -0.834000       15.9994           0
     10242 TIP3     641      TIP3     H1       HT       0.417000       1.00800           0
     10243 TIP3     641      TIP3     H2       HT       0.417000       1.00800           0
     10244 TIP3     642      TIP3     OH2      OT      -0.834000       15.9994           0
     10245 TIP3     642      TIP3     H1       HT       0.417000       1.00800           0
     10246 TIP3     642      TIP3     H2       HT       0.417000       1.00800           0
     10247 TIP3     643      TIP3     OH2      OT      -0.834000       15.9994           0
     10248 TIP3     643      TIP3     H1       HT       0.417000       1.00800           0
     10249 TIP3     643      TIP3     H2       HT       0.417000       1.00800           0
     10250 TIP3     644      TIP3     OH2      OT      -0.834000       15.9994           0
     10251 TIP3     644      TIP3     H1       HT       0.417000       1.00800           0
     10252 TIP3     644      TIP3     H2       HT       0.417000       1.00800           0
     10253 TIP3     645      TIP3     OH2      OT      -0.834000       15.9994           0
     10254 TIP3     645      TIP3     H1       HT       0.417000       1.00800           0
     10255 TIP3     645      TIP3     H2       HT       0.417000       1.00800           0
     10256 TIP3     646      TIP3     OH2      OT      -0.834000       15.9994           0
     10257 TIP3     646      TIP3     H1       HT       0.417000       1.00800           0
     10258 TIP3     646      TIP3     H2       HT       0.417000       1.00800           0
     10259 TIP3     647      TIP3     OH2      OT      -0.834000       15.9994           0
     10260 TIP3     647      TIP3     H1       HT       0.417000       1.00800           0
     10261 TIP3     647      TIP3     H2       HT       0.417000       1.00800           0
     10262 TIP3     648      TIP3     OH2      OT      -0.834000       15.9994           0
     10263 TIP3     648      TIP3     H1       HT       0.417000       1.00800           0
     10264 TIP3     648      TIP3     H2       HT       0.417000       1.00800           0
     10265 TIP3     649      TIP3     OH2      OT      -0.834000       15.9994           0
     10266 TIP3     649      TIP3     H1       HT       0.417000       1.00800           0
     10267 TIP3     649      TIP3     H2       HT       0.417000       1.00800           0
     10268 TIP3     650      TIP3     OH2      OT      -0.834000       15.9994           0
     10269 TIP3     650      TIP3     H1       HT       0.417000       1.00800           0
     10270 TIP3     650      TIP3     H2       HT       0.417000       1.00800           0
     10271 TIP3     651      TIP3     OH2      OT      -0.834000       15.9994           0
     10272 TIP3     651      TIP3     H1       HT       0.417000       1.00800           0
     10273 TIP3     651      TIP3     H2       HT       0.417000       1.00800           0
     10274 TIP3     652      TIP3     OH2      OT      -0.834000       15.9994           0
     10275 TIP3     652      TIP3     H1       HT       0.417000       1.00800           0
     10276 TIP3     652      TIP3     H2       HT       0.417000       1.00800           0
     10277 TIP3     653      TIP3     OH2      OT      -0.834000       15.9994           0
     10278 TIP3     653      TIP3     H1       HT       0.417000       1.00800           0
     10279 TIP3     653      TIP3     H2       HT       0.417000       1.00800           0
     10280 TIP3     654      TIP3     OH2      OT      -0.834000       15.9994           0
     10281 TIP3     654      TIP3     H1       HT       0.417000       1.00800           0
     10282 TIP3     654      TIP3     H2       HT       0.417000       1.00800           0
     10283 TIP3     655      TIP3     OH2      OT      -0.834000       15.9994           0
     10284 TIP3     655      TIP3     H1       HT       0.417000       1.00800           0
     10285 TIP3     655      TIP3     H2       HT       0.417000       1.00800           0
     10286 TIP3     656      TIP3     OH2      OT      -0.834000       15.9994           0
     10287 TIP3     656      TIP3     H1       HT       0.417000       1.00800           0
     10288 TIP3     656      TIP3     H2       HT       0.417000       1.00800           0
     10289 TIP3     657      TIP3     OH2      OT      -0.834000       15.9994           0
     10290 TIP3     657      TIP3     H1       HT       0.417000       1.00800           0
     10291 TIP3     657      TIP3     H2       HT       0.417000       1.00800           0
     10292 TIP3     658      TIP3     OH2      OT      -0.834000       15.9994           0
     10293 TIP3     658      TIP3     H1       HT       0.417000       1.00800           0
     10294 TIP3     658      TIP3     H2       HT       0.417000       1.00800           0
     10295 TIP3     659      TIP3     OH2      OT      -0.834000       15.9994           0
     10296 TIP3     659      TIP3     H1       HT       0.417000       1.00800           0
     10297 TIP3     659      TIP3     H2       HT       0.417000       1.00800           0
     10298 TIP3     660      TIP3     OH2      OT      -0.834000       15.9994           0
     10299 TIP3     660      TIP3     H1       HT       0.417000       1.00800           0
     10300 TIP3     660      TIP3     H2       HT       0.417000       1.00800           0
     10301 TIP3     661      TIP3     OH2      OT      -0.834000       15.9994           0
     10302 TIP3     661      TIP3     H1       HT       0.417000       1.00800           0
     10303 TIP3     661      TIP3     H2       HT       0.417000       1.00800           0
     10304 TIP3     662      TIP3     OH2      OT      -0.834000       15.9994           0
     10305 TIP3     662      TIP3     H1       HT       0.417000       1.00800           0
     10306 TIP3     662      TIP3     H2       HT       0.417000       1.00800           0
     10307 TIP3     663      TIP3     OH2      OT      -0.834000       15.9994           0
     10308 TIP3     663      TIP3     H1       HT       0.417000       1.00800           0
     10309 TIP3     663      TIP3     H2       HT       0.417000       1.00800           0
     10310 TIP3     664      TIP3     OH2      OT      -0.834000       15.9994           0
     10311 TIP3     664      TIP3     H1       HT       0.417000       1.00800           0
     10312 TIP3     664      TIP3     H2       HT       0.417000       1.00800           0
     10313 TIP3     665      TIP3     OH2      OT      -0.834000       15.9994           0
     10314 TIP3     665      TIP3     H1       HT       0.417000       1.00800           0
     10315 TIP3     665      TIP3     H2       HT       0.417000       1.00800           0
     10316 TIP3     666      TIP3     OH2      OT      -0.834000       15.9994           0
     10317 TIP3     666      TIP3     H1       HT       0.417000       1.00800           0
     10318 TIP3     666      TIP3     H2       HT       0.417000       1.00800           0
     10319 TIP3     667      TIP3     OH2      OT      -0.834000       15.9994           0
     10320 TIP3     667      TIP3     H1       HT       0.417000       1.00800           0
     10321 TIP3     667      TIP3     H2       HT       0.417000       1.00800           0
     10322 TIP3     668      TIP3     OH2      OT      -0.834000       15.9994           0
     10323 TIP3     668      TIP3     H1       HT       0.417000       1.00800           0
     10324 TIP3     668      TIP3     H2       HT       0.417000       1.00800           0
     10325 TIP3     669      TIP3     OH2      OT      -0.834000       15.9994           0
     10326 TIP3     669      TIP3     H1       HT       0.417000       1.00800           0
     10327 TIP3     669      TIP3     H2       HT       0.417000       1.00800           0
     10328 TIP3     670      TIP3     OH2      OT      -0.834000       15.9994           0
     10329 TIP3     670      TIP3     H1       HT       0.417000       1.00800           0
     10330 TIP3     670      TIP3     H2       HT       0.417000       1.00800           0
     10331 TIP3     671      TIP3     OH2      OT      -0.834000       15.9994           0
     10332 TIP3     671      TIP3     H1       HT       0.417000       1.00800           0
     10333 TIP3     671      TIP3     H2       HT       0.417000       1.00800           0
     10334 TIP3     672      TIP3     OH2      OT      -0.834000       15.9994           0
     10335 TIP3     672      TIP3     H1       HT       0.417000       1.00800           0
     10336 TIP3     672      TIP3     H2       HT       0.417000       1.00800           0
     10337 TIP3     673      TIP3     OH2      OT      -0.834000       15.9994           0
     10338 TIP3     673      TIP3     H1       HT       0.417000       1.00800           0
     10339 TIP3     673      TIP3     H2       HT       0.417000       1.00800           0
     10340 TIP3     674      TIP3     OH2      OT      -0.834000       15.9994           0
     10341 TIP3     674      TIP3     H1       HT       0.417000       1.00800           0
     10342 TIP3     674      TIP3     H2       HT       0.417000       1.00800           0
     10343 TIP3     675      TIP3     OH2      OT      -0.834000       15.9994           0
     10344 TIP3     675      TIP3     H1       HT       0.417000       1.00800           0
     10345 TIP3     675      TIP3     H2       HT       0.417000       1.00800           0
     10346 TIP3     676      TIP3     OH2      OT      -0.834000       15.9994           0
     10347 TIP3     676      TIP3     H1       HT       0.417000       1.00800           0
     10348 TIP3     676      TIP3     H2       HT       0.417000       1.00800           0
     10349 TIP3     677      TIP3     OH2      OT      -0.834000       15.9994           0
     10350 TIP3     677      TIP3     H1       HT       0.417000       1.00800           0
     10351 TIP3     677      TIP3     H2       HT       0.417000       1.00800           0
     10352 TIP3     678      TIP3     OH2      OT      -0.834000       15.9994           0
     10353 TIP3     678      TIP3     H1       HT       0.417000       1.00800           0
     10354 TIP3     678      TIP3     H2       HT       0.417000       1.00800           0
     10355 TIP3     679      TIP3     OH2      OT      -0.834000       15.9994           0
     10356 TIP3     679      TIP3     H1       HT       0.417000       1.00800           0
     10357 TIP3     679      TIP3     H2       HT       0.417000       1.00800           0
     10358 TIP3     680      TIP3     OH2      OT      -0.834000       15.9994           0
     10359 TIP3     680      TIP3     H1       HT       0.417000       1.00800           0
     10360 TIP3     680      TIP3     H2       HT       0.417000       1.00800           0
     10361 TIP3     681      TIP3     OH2      OT      -0.834000       15.9994           0
     10362 TIP3     681      TIP3     H1       HT       0.417000       1.00800           0
     10363 TIP3     681      TIP3     H2       HT       0.417000       1.00800           0
     10364 TIP3     682      TIP3     OH2      OT      -0.834000       15.9994           0
     10365 TIP3     682      TIP3     H1       HT       0.417000       1.00800           0
     10366 TIP3     682      TIP3     H2       HT       0.417000       1.00800           0
     10367 TIP3     683      TIP3     OH2      OT      -0.834000       15.9994           0
     10368 TIP3     683      TIP3     H1       HT       0.417000       1.00800           0
     10369 TIP3     683      TIP3     H2       HT       0.417000       1.00800           0
     10370 TIP3     684      TIP3     OH2      OT      -0.834000       15.9994           0
     10371 TIP3     684      TIP3     H1       HT       0.417000       1.00800           0
     10372 TIP3     684      TIP3     H2       HT       0.417000       1.00800           0
     10373 TIP3     685      TIP3     OH2      OT      -0.834000       15.9994           0
     10374 TIP3     685      TIP3     H1       HT       0.417000       1.00800           0
     10375 TIP3     685      TIP3     H2       HT       0.417000       1.00800           0
     10376 TIP3     686      TIP3     OH2      OT      -0.834000       15.9994           0
     10377 TIP3     686      TIP3     H1       HT       0.417000       1.00800           0
     10378 TIP3     686      TIP3     H2       HT       0.417000       1.00800           0
     10379 TIP3     687      TIP3     OH2      OT      -0.834000       15.9994           0
     10380 TIP3     687      TIP3     H1       HT       0.417000       1.00800           0
     10381 TIP3     687      TIP3     H2       HT       0.417000       1.00800           0
     10382 TIP3     688      TIP3     OH2      OT      -0.834000       15.9994           0
     10383 TIP3     688      TIP3     H1       HT       0.417000       1.00800           0
     10384 TIP3     688      TIP3     H2       HT       0.417000       1.00800           0
     10385 TIP3     689      TIP3     OH2      OT      -0.834000       15.9994           0
     10386 TIP3     689      TIP3     H1       HT       0.417000       1.00800           0
     10387 TIP3     689      TIP3     H2       HT       0.417000       1.00800           0
     10388 TIP3     690      TIP3     OH2      OT      -0.834000       15.9994           0
     10389 TIP3     690      TIP3     H1       HT       0.417000       1.00800           0
     10390 TIP3     690      TIP3     H2       HT       0.417000       1.00800           0
     10391 TIP3     691      TIP3     OH2      OT      -0.834000       15.9994           0
     10392 TIP3     691      TIP3     H1       HT       0.417000       1.00800           0
     10393 TIP3     691      TIP3     H2       HT       0.417000       1.00800           0
     10394 TIP3     692      TIP3     OH2      OT      -0.834000       15.9994           0
     10395 TIP3     692      TIP3     H1       HT       0.417000       1.00800           0
     10396 TIP3     692      TIP3     H2       HT       0.417000       1.00800           0
     10397 TIP3     693      TIP3     OH2      OT      -0.834000       15.9994           0
     10398 TIP3     693      TIP3     H1       HT       0.417000       1.00800           0
     10399 TIP3     693      TIP3     H2       HT       0.417000       1.00800           0
     10400 TIP3     694      TIP3     OH2      OT      -0.834000       15.9994           0
     10401 TIP3     694      TIP3     H1       HT       0.417000       1.00800           0
     10402 TIP3     694      TIP3     H2       HT       0.417000       1.00800           0
     10403 TIP3     695      TIP3     OH2      OT      -0.834000       15.9994           0
     10404 TIP3     695      TIP3     H1       HT       0.417000       1.00800           0
     10405 TIP3     695      TIP3     H2       HT       0.417000       1.00800           0
     10406 TIP3     696      TIP3     OH2      OT      -0.834000       15.9994           0
     10407 TIP3     696      TIP3     H1       HT       0.417000       1.00800           0
     10408 TIP3     696      TIP3     H2       HT       0.417000       1.00800           0
     10409 TIP3     697      TIP3     OH2      OT      -0.834000       15.9994           0
     10410 TIP3     697      TIP3     H1       HT       0.417000       1.00800           0
     10411 TIP3     697      TIP3     H2       HT       0.417000       1.00800           0
     10412 TIP3     698      TIP3     OH2      OT      -0.834000       15.9994           0
     10413 TIP3     698      TIP3     H1       HT       0.417000       1.00800           0
     10414 TIP3     698      TIP3     H2       HT       0.417000       1.00800           0
     10415 TIP3     699      TIP3     OH2      OT      -0.834000       15.9994           0
     10416 TIP3     699      TIP3     H1       HT       0.417000       1.00800           0
     10417 TIP3     699      TIP3     H2       HT       0.417000       1.00800           0
     10418 TIP3     700      TIP3     OH2      OT      -0.834000       15.9994           0
     10419 TIP3     700      TIP3     H1       HT       0.417000       1.00800           0
     10420 TIP3     700      TIP3     H2       HT       0.417000       1.00800           0
     10421 TIP3     701      TIP3     OH2      OT      -0.834000       15.9994           0
     10422 TIP3     701      TIP3     H1       HT       0.417000       1.00800           0
     10423 TIP3     701      TIP3     H2       HT       0.417000       1.00800           0
     10424 TIP3     702      TIP3     OH2      OT      -0.834000       15.9994           0
     10425 TIP3     702      TIP3     H1       HT       0.417000       1.00800           0
     10426 TIP3     702      TIP3     H2       HT       0.417000       1.00800           0
     10427 TIP3     703      TIP3     OH2      OT      -0.834000       15.9994           0
     10428 TIP3     703      TIP3     H1       HT       0.417000       1.00800           0
     10429 TIP3     703      TIP3     H2       HT       0.417000       1.00800           0
     10430 TIP3     704      TIP3     OH2      OT      -0.834000       15.9994           0
     10431 TIP3     704      TIP3     H1       HT       0.417000       1.00800           0
     10432 TIP3     704      TIP3     H2       HT       0.417000       1.00800           0
     10433 TIP3     705      TIP3     OH2      OT      -0.834000       15.9994           0
     10434 TIP3     705      TIP3     H1       HT       0.417000       1.00800           0
     10435 TIP3     705      TIP3     H2       HT       0.417000       1.00800           0
     10436 TIP3     706      TIP3     OH2      OT      -0.834000       15.9994           0
     10437 TIP3     706      TIP3     H1       HT       0.417000       1.00800           0
     10438 TIP3     706      TIP3     H2       HT       0.417000       1.00800           0
     10439 TIP3     707      TIP3     OH2      OT      -0.834000       15.9994           0
     10440 TIP3     707      TIP3     H1       HT       0.417000       1.00800           0
     10441 TIP3     707      TIP3     H2       HT       0.417000       1.00800           0
     10442 TIP3     708      TIP3     OH2      OT      -0.834000       15.9994           0
     10443 TIP3     708      TIP3     H1       HT       0.417000       1.00800           0
     10444 TIP3     708      TIP3     H2       HT       0.417000       1.00800           0
     10445 TIP3     709      TIP3     OH2      OT      -0.834000       15.9994           0
     10446 TIP3     709      TIP3     H1       HT       0.417000       1.00800           0
     10447 TIP3     709      TIP3     H2       HT       0.417000       1.00800           0
     10448 TIP3     710      TIP3     OH2      OT      -0.834000       15.9994           0
     10449 TIP3     710      TIP3     H1       HT       0.417000       1.00800           0
     10450 TIP3     710      TIP3     H2       HT       0.417000       1.00800           0
     10451 TIP3     711      TIP3     OH2      OT      -0.834000       15.9994           0
     10452 TIP3     711      TIP3     H1       HT       0.417000       1.00800           0
     10453 TIP3     711      TIP3     H2       HT       0.417000       1.00800           0
     10454 TIP3     712      TIP3     OH2      OT      -0.834000       15.9994           0
     10455 TIP3     712      TIP3     H1       HT       0.417000       1.00800           0
     10456 TIP3     712      TIP3     H2       HT       0.417000       1.00800           0
     10457 TIP3     713      TIP3     OH2      OT      -0.834000       15.9994           0
     10458 TIP3     713      TIP3     H1       HT       0.417000       1.00800           0
     10459 TIP3     713      TIP3     H2       HT       0.417000       1.00800           0
     10460 TIP3     714      TIP3     OH2      OT      -0.834000       15.9994           0
     10461 TIP3     714      TIP3     H1       HT       0.417000       1.00800           0
     10462 TIP3     714      TIP3     H2       HT       0.417000       1.00800           0
     10463 TIP3     715      TIP3     OH2      OT      -0.834000       15.9994           0
     10464 TIP3     715      TIP3     H1       HT       0.417000       1.00800           0
     10465 TIP3     715      TIP3     H2       HT       0.417000       1.00800           0
     10466 TIP3     716      TIP3     OH2      OT      -0.834000       15.9994           0
     10467 TIP3     716      TIP3     H1       HT       0.417000       1.00800           0
     10468 TIP3     716      TIP3     H2       HT       0.417000       1.00800           0
     10469 TIP3     717      TIP3     OH2      OT      -0.834000       15.9994           0
     10470 TIP3     717      TIP3     H1       HT       0.417000       1.00800           0
     10471 TIP3     717      TIP3     H2       HT       0.417000       1.00800           0
     10472 TIP3     718      TIP3     OH2      OT      -0.834000       15.9994           0
     10473 TIP3     718      TIP3     H1       HT       0.417000       1.00800           0
     10474 TIP3     718      TIP3     H2       HT       0.417000       1.00800           0
     10475 TIP3     719      TIP3     OH2      OT      -0.834000       15.9994           0
     10476 TIP3     719      TIP3     H1       HT       0.417000       1.00800           0
     10477 TIP3     719      TIP3     H2       HT       0.417000       1.00800           0
     10478 TIP3     720      TIP3     OH2      OT      -0.834000       15.9994           0
     10479 TIP3     720      TIP3     H1       HT       0.417000       1.00800           0
     10480 TIP3     720      TIP3     H2       HT       0.417000       1.00800           0
     10481 TIP3     721      TIP3     OH2      OT      -0.834000       15.9994           0
     10482 TIP3     721      TIP3     H1       HT       0.417000       1.00800           0
     10483 TIP3     721      TIP3     H2       HT       0.417000       1.00800           0
     10484 TIP3     722      TIP3     OH2      OT      -0.834000       15.9994           0
     10485 TIP3     722      TIP3     H1       HT       0.417000       1.00800           0
     10486 TIP3     722      TIP3     H2       HT       0.417000       1.00800           0
     10487 TIP3     723      TIP3     OH2      OT      -0.834000       15.9994           0
     10488 TIP3     723      TIP3     H1       HT       0.417000       1.00800           0
     10489 TIP3     723      TIP3     H2       HT       0.417000       1.00800           0
     10490 TIP3     724      TIP3     OH2      OT      -0.834000       15.9994           0
     10491 TIP3     724      TIP3     H1       HT       0.417000       1.00800           0
     10492 TIP3     724      TIP3     H2       HT       0.417000       1.00800           0
     10493 TIP3     725      TIP3     OH2      OT      -0.834000       15.9994           0
     10494 TIP3     725      TIP3     H1       HT       0.417000       1.00800           0
     10495 TIP3     725      TIP3     H2       HT       0.417000       1.00800           0
     10496 TIP3     726      TIP3     OH2      OT      -0.834000       15.9994           0
     10497 TIP3     726      TIP3     H1       HT       0.417000       1.00800           0
     10498 TIP3     726      TIP3     H2       HT       0.417000       1.00800           0
     10499 TIP3     727      TIP3     OH2      OT      -0.834000       15.9994           0
     10500 TIP3     727      TIP3     H1       HT       0.417000       1.00800           0
     10501 TIP3     727      TIP3     H2       HT       0.417000       1.00800           0
     10502 TIP3     728      TIP3     OH2      OT      -0.834000       15.9994           0
     10503 TIP3     728      TIP3     H1       HT       0.417000       1.00800           0
     10504 TIP3     728      TIP3     H2       HT       0.417000       1.00800           0
     10505 TIP3     729      TIP3     OH2      OT      -0.834000       15.9994           0
     10506 TIP3     729      TIP3     H1       HT       0.417000       1.00800           0
     10507 TIP3     729      TIP3     H2       HT       0.417000       1.00800           0
     10508 TIP3     730      TIP3     OH2      OT      -0.834000       15.9994           0
     10509 TIP3     730      TIP3     H1       HT       0.417000       1.00800           0
     10510 TIP3     730      TIP3     H2       HT       0.417000       1.00800           0
     10511 TIP3     731      TIP3     OH2      OT      -0.834000       15.9994           0
     10512 TIP3     731      TIP3     H1       HT       0.417000       1.00800           0
     10513 TIP3     731      TIP3     H2       HT       0.417000       1.00800           0
     10514 TIP3     732      TIP3     OH2      OT      -0.834000       15.9994           0
     10515 TIP3     732      TIP3     H1       HT       0.417000       1.00800           0
     10516 TIP3     732      TIP3     H2       HT       0.417000       1.00800           0
     10517 TIP3     733      TIP3     OH2      OT      -0.834000       15.9994           0
     10518 TIP3     733      TIP3     H1       HT       0.417000       1.00800           0
     10519 TIP3     733      TIP3     H2       HT       0.417000       1.00800           0
     10520 TIP3     734      TIP3     OH2      OT      -0.834000       15.9994           0
     10521 TIP3     734      TIP3     H1       HT       0.417000       1.00800           0
     10522 TIP3     734      TIP3     H2       HT       0.417000       1.00800           0
     10523 TIP3     735      TIP3     OH2      OT      -0.834000       15.9994           0
     10524 TIP3     735      TIP3     H1       HT       0.417000       1.00800           0
     10525 TIP3     735      TIP3     H2       HT       0.417000       1.00800           0
     10526 TIP3     736      TIP3     OH2      OT      -0.834000       15.9994           0
     10527 TIP3     736      TIP3     H1       HT       0.417000       1.00800           0
     10528 TIP3     736      TIP3     H2       HT       0.417000       1.00800           0
     10529 TIP3     737      TIP3     OH2      OT      -0.834000       15.9994           0
     10530 TIP3     737      TIP3     H1       HT       0.417000       1.00800           0
     10531 TIP3     737      TIP3     H2       HT       0.417000       1.00800           0
     10532 TIP3     738      TIP3     OH2      OT      -0.834000       15.9994           0
     10533 TIP3     738      TIP3     H1       HT       0.417000       1.00800           0
     10534 TIP3     738      TIP3     H2       HT       0.417000       1.00800           0
     10535 TIP3     739      TIP3     OH2      OT      -0.834000       15.9994           0
     10536 TIP3     739      TIP3     H1       HT       0.417000       1.00800           0
     10537 TIP3     739      TIP3     H2       HT       0.417000       1.00800           0
     10538 TIP3     740      TIP3     OH2      OT      -0.834000       15.9994           0
     10539 TIP3     740      TIP3     H1       HT       0.417000       1.00800           0
     10540 TIP3     740      TIP3     H2       HT       0.417000       1.00800           0
     10541 TIP3     741      TIP3     OH2      OT      -0.834000       15.9994           0
     10542 TIP3     741      TIP3     H1       HT       0.417000       1.00800           0
     10543 TIP3     741      TIP3     H2       HT       0.417000       1.00800           0
     10544 TIP3     742      TIP3     OH2      OT      -0.834000       15.9994           0
     10545 TIP3     742      TIP3     H1       HT       0.417000       1.00800           0
     10546 TIP3     742      TIP3     H2       HT       0.417000       1.00800           0
     10547 TIP3     743      TIP3     OH2      OT      -0.834000       15.9994           0
     10548 TIP3     743      TIP3     H1       HT       0.417000       1.00800           0
     10549 TIP3     743      TIP3     H2       HT       0.417000       1.00800           0
     10550 TIP3     744      TIP3     OH2      OT      -0.834000       15.9994           0
     10551 TIP3     744      TIP3     H1       HT       0.417000       1.00800           0
     10552 TIP3     744      TIP3     H2       HT       0.417000       1.00800           0
     10553 TIP3     745      TIP3     OH2      OT      -0.834000       15.9994           0
     10554 TIP3     745      TIP3     H1       HT       0.417000       1.00800           0
     10555 TIP3     745      TIP3     H2       HT       0.417000       1.00800           0
     10556 TIP3     746      TIP3     OH2      OT      -0.834000       15.9994           0
     10557 TIP3     746      TIP3     H1       HT       0.417000       1.00800           0
     10558 TIP3     746      TIP3     H2       HT       0.417000       1.00800           0
     10559 TIP3     747      TIP3     OH2      OT      -0.834000       15.9994           0
     10560 TIP3     747      TIP3     H1       HT       0.417000       1.00800           0
     10561 TIP3     747      TIP3     H2       HT       0.417000       1.00800           0
     10562 TIP3     748      TIP3     OH2      OT      -0.834000       15.9994           0
     10563 TIP3     748      TIP3     H1       HT       0.417000       1.00800           0
     10564 TIP3     748      TIP3     H2       HT       0.417000       1.00800           0
     10565 TIP3     749      TIP3     OH2      OT      -0.834000       15.9994           0
     10566 TIP3     749      TIP3     H1       HT       0.417000       1.00800           0
     10567 TIP3     749      TIP3     H2       HT       0.417000       1.00800           0
     10568 TIP3     750      TIP3     OH2      OT      -0.834000       15.9994           0
     10569 TIP3     750      TIP3     H1       HT       0.417000       1.00800           0
     10570 TIP3     750      TIP3     H2       HT       0.417000       1.00800           0
     10571 TIP3     751      TIP3     OH2      OT      -0.834000       15.9994           0
     10572 TIP3     751      TIP3     H1       HT       0.417000       1.00800           0
     10573 TIP3     751      TIP3     H2       HT       0.417000       1.00800           0
     10574 TIP3     752      TIP3     OH2      OT      -0.834000       15.9994           0
     10575 TIP3     752      TIP3     H1       HT       0.417000       1.00800           0
     10576 TIP3     752      TIP3     H2       HT       0.417000       1.00800           0
     10577 TIP3     753      TIP3     OH2      OT      -0.834000       15.9994           0
     10578 TIP3     753      TIP3     H1       HT       0.417000       1.00800           0
     10579 TIP3     753      TIP3     H2       HT       0.417000       1.00800           0
     10580 TIP3     754      TIP3     OH2      OT      -0.834000       15.9994           0
     10581 TIP3     754      TIP3     H1       HT       0.417000       1.00800           0
     10582 TIP3     754      TIP3     H2       HT       0.417000       1.00800           0
     10583 TIP3     755      TIP3     OH2      OT      -0.834000       15.9994           0
     10584 TIP3     755      TIP3     H1       HT       0.417000       1.00800           0
     10585 TIP3     755      TIP3     H2       HT       0.417000       1.00800           0
     10586 TIP3     756      TIP3     OH2      OT      -0.834000       15.9994           0
     10587 TIP3     756      TIP3     H1       HT       0.417000       1.00800           0
     10588 TIP3     756      TIP3     H2       HT       0.417000       1.00800           0
     10589 TIP3     757      TIP3     OH2      OT      -0.834000       15.9994           0
     10590 TIP3     757      TIP3     H1       HT       0.417000       1.00800           0
     10591 TIP3     757      TIP3     H2       HT       0.417000       1.00800           0
     10592 TIP3     758      TIP3     OH2      OT      -0.834000       15.9994           0
     10593 TIP3     758      TIP3     H1       HT       0.417000       1.00800           0
     10594 TIP3     758      TIP3     H2       HT       0.417000       1.00800           0
     10595 TIP3     759      TIP3     OH2      OT      -0.834000       15.9994           0
     10596 TIP3     759      TIP3     H1       HT       0.417000       1.00800           0
     10597 TIP3     759      TIP3     H2       HT       0.417000       1.00800           0
     10598 TIP3     760      TIP3     OH2      OT      -0.834000       15.9994           0
     10599 TIP3     760      TIP3     H1       HT       0.417000       1.00800           0
     10600 TIP3     760      TIP3     H2       HT       0.417000       1.00800           0
     10601 TIP3     761      TIP3     OH2      OT      -0.834000       15.9994           0
     10602 TIP3     761      TIP3     H1       HT       0.417000       1.00800           0
     10603 TIP3     761      TIP3     H2       HT       0.417000       1.00800           0
     10604 TIP3     762      TIP3     OH2      OT      -0.834000       15.9994           0
     10605 TIP3     762      TIP3     H1       HT       0.417000       1.00800           0
     10606 TIP3     762      TIP3     H2       HT       0.417000       1.00800           0
     10607 TIP3     763      TIP3     OH2      OT      -0.834000       15.9994           0
     10608 TIP3     763      TIP3     H1       HT       0.417000       1.00800           0
     10609 TIP3     763      TIP3     H2       HT       0.417000       1.00800           0
     10610 TIP3     764      TIP3     OH2      OT      -0.834000       15.9994           0
     10611 TIP3     764      TIP3     H1       HT       0.417000       1.00800           0
     10612 TIP3     764      TIP3     H2       HT       0.417000       1.00800           0
     10613 TIP3     765      TIP3     OH2      OT      -0.834000       15.9994           0
     10614 TIP3     765      TIP3     H1       HT       0.417000       1.00800           0
     10615 TIP3     765      TIP3     H2       HT       0.417000       1.00800           0
     10616 TIP3     766      TIP3     OH2      OT      -0.834000       15.9994           0
     10617 TIP3     766      TIP3     H1       HT       0.417000       1.00800           0
     10618 TIP3     766      TIP3     H2       HT       0.417000       1.00800           0
     10619 TIP3     767      TIP3     OH2      OT      -0.834000       15.9994           0
     10620 TIP3     767      TIP3     H1       HT       0.417000       1.00800           0
     10621 TIP3     767      TIP3     H2       HT       0.417000       1.00800           0
     10622 TIP3     768      TIP3     OH2      OT      -0.834000       15.9994           0
     10623 TIP3     768      TIP3     H1       HT       0.417000       1.00800           0
     10624 TIP3     768      TIP3     H2       HT       0.417000       1.00800           0
     10625 TIP3     769      TIP3     OH2      OT      -0.834000       15.9994           0
     10626 TIP3     769      TIP3     H1       HT       0.417000       1.00800           0
     10627 TIP3     769      TIP3     H2       HT       0.417000       1.00800           0
     10628 TIP3     770      TIP3     OH2      OT      -0.834000       15.9994           0
     10629 TIP3     770      TIP3     H1       HT       0.417000       1.00800           0
     10630 TIP3     770      TIP3     H2       HT       0.417000       1.00800           0
     10631 TIP3     771      TIP3     OH2      OT      -0.834000       15.9994           0
     10632 TIP3     771      TIP3     H1       HT       0.417000       1.00800           0
     10633 TIP3     771      TIP3     H2       HT       0.417000       1.00800           0
     10634 TIP3     772      TIP3     OH2      OT      -0.834000       15.9994           0
     10635 TIP3     772      TIP3     H1       HT       0.417000       1.00800           0
     10636 TIP3     772      TIP3     H2       HT       0.417000       1.00800           0
     10637 TIP3     773      TIP3     OH2      OT      -0.834000       15.9994           0
     10638 TIP3     773      TIP3     H1       HT       0.417000       1.00800           0
     10639 TIP3     773      TIP3     H2       HT       0.417000       1.00800           0
     10640 TIP3     774      TIP3     OH2      OT      -0.834000       15.9994           0
     10641 TIP3     774      TIP3     H1       HT       0.417000       1.00800           0
     10642 TIP3     774      TIP3     H2       HT       0.417000       1.00800           0
     10643 TIP3     775      TIP3     OH2      OT      -0.834000       15.9994           0
     10644 TIP3     775      TIP3     H1       HT       0.417000       1.00800           0
     10645 TIP3     775      TIP3     H2       HT       0.417000       1.00800           0
     10646 TIP3     776      TIP3     OH2      OT      -0.834000       15.9994           0
     10647 TIP3     776      TIP3     H1       HT       0.417000       1.00800           0
     10648 TIP3     776      TIP3     H2       HT       0.417000       1.00800           0
     10649 TIP3     777      TIP3     OH2      OT      -0.834000       15.9994           0
     10650 TIP3     777      TIP3     H1       HT       0.417000       1.00800           0
     10651 TIP3     777      TIP3     H2       HT       0.417000       1.00800           0
     10652 TIP3     778      TIP3     OH2      OT      -0.834000       15.9994           0
     10653 TIP3     778      TIP3     H1       HT       0.417000       1.00800           0
     10654 TIP3     778      TIP3     H2       HT       0.417000       1.00800           0
     10655 TIP3     779      TIP3     OH2      OT      -0.834000       15.9994           0
     10656 TIP3     779      TIP3     H1       HT       0.417000       1.00800           0
     10657 TIP3     779      TIP3     H2       HT       0.417000       1.00800           0
     10658 TIP3     780      TIP3     OH2      OT      -0.834000       15.9994           0
     10659 TIP3     780      TIP3     H1       HT       0.417000       1.00800           0
     10660 TIP3     780      TIP3     H2       HT       0.417000       1.00800           0
     10661 TIP3     781      TIP3     OH2      OT      -0.834000       15.9994           0
     10662 TIP3     781      TIP3     H1       HT       0.417000       1.00800           0
     10663 TIP3     781      TIP3     H2       HT       0.417000       1.00800           0
     10664 TIP3     782      TIP3     OH2      OT      -0.834000       15.9994           0
     10665 TIP3     782      TIP3     H1       HT       0.417000       1.00800           0
     10666 TIP3     782      TIP3     H2       HT       0.417000       1.00800           0
     10667 TIP3     783      TIP3     OH2      OT      -0.834000       15.9994           0
     10668 TIP3     783      TIP3     H1       HT       0.417000       1.00800           0
     10669 TIP3     783      TIP3     H2       HT       0.417000       1.00800           0
     10670 TIP3     784      TIP3     OH2      OT      -0.834000       15.9994           0
     10671 TIP3     784      TIP3     H1       HT       0.417000       1.00800           0
     10672 TIP3     784      TIP3     H2       HT       0.417000       1.00800           0
     10673 TIP3     785      TIP3     OH2      OT      -0.834000       15.9994           0
     10674 TIP3     785      TIP3     H1       HT       0.417000       1.00800           0
     10675 TIP3     785      TIP3     H2       HT       0.417000       1.00800           0
     10676 TIP3     786      TIP3     OH2      OT      -0.834000       15.9994           0
     10677 TIP3     786      TIP3     H1       HT       0.417000       1.00800           0
     10678 TIP3     786      TIP3     H2       HT       0.417000       1.00800           0
     10679 TIP3     787      TIP3     OH2      OT      -0.834000       15.9994           0
     10680 TIP3     787      TIP3     H1       HT       0.417000       1.00800           0
     10681 TIP3     787      TIP3     H2       HT       0.417000       1.00800           0
     10682 TIP3     788      TIP3     OH2      OT      -0.834000       15.9994           0
     10683 TIP3     788      TIP3     H1       HT       0.417000       1.00800           0
     10684 TIP3     788      TIP3     H2       HT       0.417000       1.00800           0
     10685 TIP3     789      TIP3     OH2      OT      -0.834000       15.9994           0
     10686 TIP3     789      TIP3     H1       HT       0.417000       1.00800           0
     10687 TIP3     789      TIP3     H2       HT       0.417000       1.00800           0
     10688 TIP3     790      TIP3     OH2      OT      -0.834000       15.9994           0
     10689 TIP3     790      TIP3     H1       HT       0.417000       1.00800           0
     10690 TIP3     790      TIP3     H2       HT       0.417000       1.00800           0
     10691 TIP3     791      TIP3     OH2      OT      -0.834000       15.9994           0
     10692 TIP3     791      TIP3     H1       HT       0.417000       1.00800           0
     10693 TIP3     791      TIP3     H2       HT       0.417000       1.00800           0
     10694 TIP3     792      TIP3     OH2      OT      -0.834000       15.9994           0
     10695 TIP3     792      TIP3     H1       HT       0.417000       1.00800           0
     10696 TIP3     792      TIP3     H2       HT       0.417000       1.00800           0
     10697 TIP3     793      TIP3     OH2      OT      -0.834000       15.9994           0
     10698 TIP3     793      TIP3     H1       HT       0.417000       1.00800           0
     10699 TIP3     793      TIP3     H2       HT       0.417000       1.00800           0
     10700 TIP3     794      TIP3     OH2      OT      -0.834000       15.9994           0
     10701 TIP3     794      TIP3     H1       HT       0.417000       1.00800           0
     10702 TIP3     794      TIP3     H2       HT       0.417000       1.00800           0
     10703 TIP3     795      TIP3     OH2      OT      -0.834000       15.9994           0
     10704 TIP3     795      TIP3     H1       HT       0.417000       1.00800           0
     10705 TIP3     795      TIP3     H2       HT       0.417000       1.00800           0
     10706 TIP3     796      TIP3     OH2      OT      -0.834000       15.9994           0
     10707 TIP3     796      TIP3     H1       HT       0.417000       1.00800           0
     10708 TIP3     796      TIP3     H2       HT       0.417000       1.00800           0
     10709 TIP3     797      TIP3     OH2      OT      -0.834000       15.9994           0
     10710 TIP3     797      TIP3     H1       HT       0.417000       1.00800           0
     10711 TIP3     797      TIP3     H2       HT       0.417000       1.00800           0
     10712 TIP3     798      TIP3     OH2      OT      -0.834000       15.9994           0
     10713 TIP3     798      TIP3     H1       HT       0.417000       1.00800           0
     10714 TIP3     798      TIP3     H2       HT       0.417000       1.00800           0
     10715 TIP3     799      TIP3     OH2      OT      -0.834000       15.9994           0
     10716 TIP3     799      TIP3     H1       HT       0.417000       1.00800           0
     10717 TIP3     799      TIP3     H2       HT       0.417000       1.00800           0
     10718 TIP3     800      TIP3     OH2      OT      -0.834000       15.9994           0
     10719 TIP3     800      TIP3     H1       HT       0.417000       1.00800           0
     10720 TIP3     800      TIP3     H2       HT       0.417000       1.00800           0
     10721 TIP3     801      TIP3     OH2      OT      -0.834000       15.9994           0
     10722 TIP3     801      TIP3     H1       HT       0.417000       1.00800           0
     10723 TIP3     801      TIP3     H2       HT       0.417000       1.00800           0
     10724 TIP3     802      TIP3     OH2      OT      -0.834000       15.9994           0
     10725 TIP3     802      TIP3     H1       HT       0.417000       1.00800           0
     10726 TIP3     802      TIP3     H2       HT       0.417000       1.00800           0
     10727 TIP3     803      TIP3     OH2      OT      -0.834000       15.9994           0
     10728 TIP3     803      TIP3     H1       HT       0.417000       1.00800           0
     10729 TIP3     803      TIP3     H2       HT       0.417000       1.00800           0
     10730 TIP3     804      TIP3     OH2      OT      -0.834000       15.9994           0
     10731 TIP3     804      TIP3     H1       HT       0.417000       1.00800           0
     10732 TIP3     804      TIP3     H2       HT       0.417000       1.00800           0
     10733 TIP3     805      TIP3     OH2      OT      -0.834000       15.9994           0
     10734 TIP3     805      TIP3     H1       HT       0.417000       1.00800           0
     10735 TIP3     805      TIP3     H2       HT       0.417000       1.00800           0
     10736 TIP3     806      TIP3     OH2      OT      -0.834000       15.9994           0
     10737 TIP3     806      TIP3     H1       HT       0.417000       1.00800           0
     10738 TIP3     806      TIP3     H2       HT       0.417000       1.00800           0
     10739 TIP3     807      TIP3     OH2      OT      -0.834000       15.9994           0
     10740 TIP3     807      TIP3     H1       HT       0.417000       1.00800           0
     10741 TIP3     807      TIP3     H2       HT       0.417000       1.00800           0
     10742 TIP3     808      TIP3     OH2      OT      -0.834000       15.9994           0
     10743 TIP3     808      TIP3     H1       HT       0.417000       1.00800           0
     10744 TIP3     808      TIP3     H2       HT       0.417000       1.00800           0
     10745 TIP3     809      TIP3     OH2      OT      -0.834000       15.9994           0
     10746 TIP3     809      TIP3     H1       HT       0.417000       1.00800           0
     10747 TIP3     809      TIP3     H2       HT       0.417000       1.00800           0
     10748 TIP3     810      TIP3     OH2      OT      -0.834000       15.9994           0
     10749 TIP3     810      TIP3     H1       HT       0.417000       1.00800           0
     10750 TIP3     810      TIP3     H2       HT       0.417000       1.00800           0
     10751 TIP3     811      TIP3     OH2      OT      -0.834000       15.9994           0
     10752 TIP3     811      TIP3     H1       HT       0.417000       1.00800           0
     10753 TIP3     811      TIP3     H2       HT       0.417000       1.00800           0
     10754 TIP3     812      TIP3     OH2      OT      -0.834000       15.9994           0
     10755 TIP3     812      TIP3     H1       HT       0.417000       1.00800           0
     10756 TIP3     812      TIP3     H2       HT       0.417000       1.00800           0
     10757 TIP3     813      TIP3     OH2      OT      -0.834000       15.9994           0
     10758 TIP3     813      TIP3     H1       HT       0.417000       1.00800           0
     10759 TIP3     813      TIP3     H2       HT       0.417000       1.00800           0
     10760 TIP3     814      TIP3     OH2      OT      -0.834000       15.9994           0
     10761 TIP3     814      TIP3     H1       HT       0.417000       1.00800           0
     10762 TIP3     814      TIP3     H2       HT       0.417000       1.00800           0
     10763 TIP3     815      TIP3     OH2      OT      -0.834000       15.9994           0
     10764 TIP3     815      TIP3     H1       HT       0.417000       1.00800           0
     10765 TIP3     815      TIP3     H2       HT       0.417000       1.00800           0
     10766 TIP3     816      TIP3     OH2      OT      -0.834000       15.9994           0
     10767 TIP3     816      TIP3     H1       HT       0.417000       1.00800           0
     10768 TIP3     816      TIP3     H2       HT       0.417000       1.00800           0
     10769 TIP3     817      TIP3     OH2      OT      -0.834000       15.9994           0
     10770 TIP3     817      TIP3     H1       HT       0.417000       1.00800           0
     10771 TIP3     817      TIP3     H2       HT       0.417000       1.00800           0
     10772 TIP3     818      TIP3     OH2      OT      -0.834000       15.9994           0
     10773 TIP3     818      TIP3     H1       HT       0.417000       1.00800           0
     10774 TIP3     818      TIP3     H2       HT       0.417000       1.00800           0
     10775 TIP3     819      TIP3     OH2      OT      -0.834000       15.9994           0
     10776 TIP3     819      TIP3     H1       HT       0.417000       1.00800           0
     10777 TIP3     819      TIP3     H2       HT       0.417000       1.00800           0
     10778 TIP3     820      TIP3     OH2      OT      -0.834000       15.9994           0
     10779 TIP3     820      TIP3     H1       HT       0.417000       1.00800           0
     10780 TIP3     820      TIP3     H2       HT       0.417000       1.00800           0
     10781 TIP3     821      TIP3     OH2      OT      -0.834000       15.9994           0
     10782 TIP3     821      TIP3     H1       HT       0.417000       1.00800           0
     10783 TIP3     821      TIP3     H2       HT       0.417000       1.00800           0
     10784 TIP3     822      TIP3     OH2      OT      -0.834000       15.9994           0
     10785 TIP3     822      TIP3     H1       HT       0.417000       1.00800           0
     10786 TIP3     822      TIP3     H2       HT       0.417000       1.00800           0
     10787 TIP3     823      TIP3     OH2      OT      -0.834000       15.9994           0
     10788 TIP3     823      TIP3     H1       HT       0.417000       1.00800           0
     10789 TIP3     823      TIP3     H2       HT       0.417000       1.00800           0
     10790 TIP3     824      TIP3     OH2      OT      -0.834000       15.9994           0
     10791 TIP3     824      TIP3     H1       HT       0.417000       1.00800           0
     10792 TIP3     824      TIP3     H2       HT       0.417000       1.00800           0
     10793 TIP3     825      TIP3     OH2      OT      -0.834000       15.9994           0
     10794 TIP3     825      TIP3     H1       HT       0.417000       1.00800           0
     10795 TIP3     825      TIP3     H2       HT       0.417000       1.00800           0
     10796 TIP3     826      TIP3     OH2      OT      -0.834000       15.9994           0
     10797 TIP3     826      TIP3     H1       HT       0.417000       1.00800           0
     10798 TIP3     826      TIP3     H2       HT       0.417000       1.00800           0
     10799 TIP3     827      TIP3     OH2      OT      -0.834000       15.9994           0
     10800 TIP3     827      TIP3     H1       HT       0.417000       1.00800           0
     10801 TIP3     827      TIP3     H2       HT       0.417000       1.00800           0
     10802 TIP3     828      TIP3     OH2      OT      -0.834000       15.9994           0
     10803 TIP3     828      TIP3     H1       HT       0.417000       1.00800           0
     10804 TIP3     828      TIP3     H2       HT       0.417000       1.00800           0
     10805 TIP3     829      TIP3     OH2      OT      -0.834000       15.9994           0
     10806 TIP3     829      TIP3     H1       HT       0.417000       1.00800           0
     10807 TIP3     829      TIP3     H2       HT       0.417000       1.00800           0
     10808 TIP3     830      TIP3     OH2      OT      -0.834000       15.9994           0
     10809 TIP3     830      TIP3     H1       HT       0.417000       1.00800           0
     10810 TIP3     830      TIP3     H2       HT       0.417000       1.00800           0
     10811 TIP3     831      TIP3     OH2      OT      -0.834000       15.9994           0
     10812 TIP3     831      TIP3     H1       HT       0.417000       1.00800           0
     10813 TIP3     831      TIP3     H2       HT       0.417000       1.00800           0
     10814 TIP3     832      TIP3     OH2      OT      -0.834000       15.9994           0
     10815 TIP3     832      TIP3     H1       HT       0.417000       1.00800           0
     10816 TIP3     832      TIP3     H2       HT       0.417000       1.00800           0
     10817 TIP3     833      TIP3     OH2      OT      -0.834000       15.9994           0
     10818 TIP3     833      TIP3     H1       HT       0.417000       1.00800           0
     10819 TIP3     833      TIP3     H2       HT       0.417000       1.00800           0
     10820 TIP3     834      TIP3     OH2      OT      -0.834000       15.9994           0
     10821 TIP3     834      TIP3     H1       HT       0.417000       1.00800           0
     10822 TIP3     834      TIP3     H2       HT       0.417000       1.00800           0
     10823 TIP3     835      TIP3     OH2      OT      -0.834000       15.9994           0
     10824 TIP3     835      TIP3     H1       HT       0.417000       1.00800           0
     10825 TIP3     835      TIP3     H2       HT       0.417000       1.00800           0
     10826 TIP3     836      TIP3     OH2      OT      -0.834000       15.9994           0
     10827 TIP3     836      TIP3     H1       HT       0.417000       1.00800           0
     10828 TIP3     836      TIP3     H2       HT       0.417000       1.00800           0
     10829 TIP3     837      TIP3     OH2      OT      -0.834000       15.9994           0
     10830 TIP3     837      TIP3     H1       HT       0.417000       1.00800           0
     10831 TIP3     837      TIP3     H2       HT       0.417000       1.00800           0
     10832 TIP3     838      TIP3     OH2      OT      -0.834000       15.9994           0
     10833 TIP3     838      TIP3     H1       HT       0.417000       1.00800           0
     10834 TIP3     838      TIP3     H2       HT       0.417000       1.00800           0
     10835 TIP3     839      TIP3     OH2      OT      -0.834000       15.9994           0
     10836 TIP3     839      TIP3     H1       HT       0.417000       1.00800           0
     10837 TIP3     839      TIP3     H2       HT       0.417000       1.00800           0
     10838 TIP3     840      TIP3     OH2      OT      -0.834000       15.9994           0
     10839 TIP3     840      TIP3     H1       HT       0.417000       1.00800           0
     10840 TIP3     840      TIP3     H2       HT       0.417000       1.00800           0
     10841 TIP3     841      TIP3     OH2      OT      -0.834000       15.9994           0
     10842 TIP3     841      TIP3     H1       HT       0.417000       1.00800           0
     10843 TIP3     841      TIP3     H2       HT       0.417000       1.00800           0
     10844 TIP3     842      TIP3     OH2      OT      -0.834000       15.9994           0
     10845 TIP3     842      TIP3     H1       HT       0.417000       1.00800           0
     10846 TIP3     842      TIP3     H2       HT       0.417000       1.00800           0
     10847 TIP3     843      TIP3     OH2      OT      -0.834000       15.9994           0
     10848 TIP3     843      TIP3     H1       HT       0.417000       1.00800           0
     10849 TIP3     843      TIP3     H2       HT       0.417000       1.00800           0
     10850 TIP3     844      TIP3     OH2      OT      -0.834000       15.9994           0
     10851 TIP3     844      TIP3     H1       HT       0.417000       1.00800           0
     10852 TIP3     844      TIP3     H2       HT       0.417000       1.00800           0
     10853 TIP3     845      TIP3     OH2      OT      -0.834000       15.9994           0
     10854 TIP3     845      TIP3     H1       HT       0.417000       1.00800           0
     10855 TIP3     845      TIP3     H2       HT       0.417000       1.00800           0
     10856 TIP3     846      TIP3     OH2      OT      -0.834000       15.9994           0
     10857 TIP3     846      TIP3     H1       HT       0.417000       1.00800           0
     10858 TIP3     846      TIP3     H2       HT       0.417000       1.00800           0
     10859 TIP3     847      TIP3     OH2      OT      -0.834000       15.9994           0
     10860 TIP3     847      TIP3     H1       HT       0.417000       1.00800           0
     10861 TIP3     847      TIP3     H2       HT       0.417000       1.00800           0
     10862 TIP3     848      TIP3     OH2      OT      -0.834000       15.9994           0
     10863 TIP3     848      TIP3     H1       HT       0.417000       1.00800           0
     10864 TIP3     848      TIP3     H2       HT       0.417000       1.00800           0
     10865 TIP3     849      TIP3     OH2      OT      -0.834000       15.9994           0
     10866 TIP3     849      TIP3     H1       HT       0.417000       1.00800           0
     10867 TIP3     849      TIP3     H2       HT       0.417000       1.00800           0
     10868 TIP3     850      TIP3     OH2      OT      -0.834000       15.9994           0
     10869 TIP3     850      TIP3     H1       HT       0.417000       1.00800           0
     10870 TIP3     850      TIP3     H2       HT       0.417000       1.00800           0
     10871 TIP3     851      TIP3     OH2      OT      -0.834000       15.9994           0
     10872 TIP3     851      TIP3     H1       HT       0.417000       1.00800           0
     10873 TIP3     851      TIP3     H2       HT       0.417000       1.00800           0
     10874 TIP3     852      TIP3     OH2      OT      -0.834000       15.9994           0
     10875 TIP3     852      TIP3     H1       HT       0.417000       1.00800           0
     10876 TIP3     852      TIP3     H2       HT       0.417000       1.00800           0
     10877 TIP3     853      TIP3     OH2      OT      -0.834000       15.9994           0
     10878 TIP3     853      TIP3     H1       HT       0.417000       1.00800           0
     10879 TIP3     853      TIP3     H2       HT       0.417000       1.00800           0
     10880 TIP3     854      TIP3     OH2      OT      -0.834000       15.9994           0
     10881 TIP3     854      TIP3     H1       HT       0.417000       1.00800           0
     10882 TIP3     854      TIP3     H2       HT       0.417000       1.00800           0
     10883 TIP3     855      TIP3     OH2      OT      -0.834000       15.9994           0
     10884 TIP3     855      TIP3     H1       HT       0.417000       1.00800           0
     10885 TIP3     855      TIP3     H2       HT       0.417000       1.00800           0
     10886 TIP3     856      TIP3     OH2      OT      -0.834000       15.9994           0
     10887 TIP3     856      TIP3     H1       HT       0.417000       1.00800           0
     10888 TIP3     856      TIP3     H2       HT       0.417000       1.00800           0
     10889 TIP3     857      TIP3     OH2      OT      -0.834000       15.9994           0
     10890 TIP3     857      TIP3     H1       HT       0.417000       1.00800           0
     10891 TIP3     857      TIP3     H2       HT       0.417000       1.00800           0
     10892 TIP3     858      TIP3     OH2      OT      -0.834000       15.9994           0
     10893 TIP3     858      TIP3     H1       HT       0.417000       1.00800           0
     10894 TIP3     858      TIP3     H2       HT       0.417000       1.00800           0
     10895 TIP3     859      TIP3     OH2      OT      -0.834000       15.9994           0
     10896 TIP3     859      TIP3     H1       HT       0.417000       1.00800           0
     10897 TIP3     859      TIP3     H2       HT       0.417000       1.00800           0
     10898 TIP3     860      TIP3     OH2      OT      -0.834000       15.9994           0
     10899 TIP3     860      TIP3     H1       HT       0.417000       1.00800           0
     10900 TIP3     860      TIP3     H2       HT       0.417000       1.00800           0
     10901 TIP3     861      TIP3     OH2      OT      -0.834000       15.9994           0
     10902 TIP3     861      TIP3     H1       HT       0.417000       1.00800           0
     10903 TIP3     861      TIP3     H2       HT       0.417000       1.00800           0
     10904 TIP3     862      TIP3     OH2      OT      -0.834000       15.9994           0
     10905 TIP3     862      TIP3     H1       HT       0.417000       1.00800           0
     10906 TIP3     862      TIP3     H2       HT       0.417000       1.00800           0
     10907 TIP3     863      TIP3     OH2      OT      -0.834000       15.9994           0
     10908 TIP3     863      TIP3     H1       HT       0.417000       1.00800           0
     10909 TIP3     863      TIP3     H2       HT       0.417000       1.00800           0
     10910 TIP3     864      TIP3     OH2      OT      -0.834000       15.9994           0
     10911 TIP3     864      TIP3     H1       HT       0.417000       1.00800           0
     10912 TIP3     864      TIP3     H2       HT       0.417000       1.00800           0
     10913 TIP3     865      TIP3     OH2      OT      -0.834000       15.9994           0
     10914 TIP3     865      TIP3     H1       HT       0.417000       1.00800           0
     10915 TIP3     865      TIP3     H2       HT       0.417000       1.00800           0
     10916 TIP3     866      TIP3     OH2      OT      -0.834000       15.9994           0
     10917 TIP3     866      TIP3     H1       HT       0.417000       1.00800           0
     10918 TIP3     866      TIP3     H2       HT       0.417000       1.00800           0
     10919 TIP3     867      TIP3     OH2      OT      -0.834000       15.9994           0
     10920 TIP3     867      TIP3     H1       HT       0.417000       1.00800           0
     10921 TIP3     867      TIP3     H2       HT       0.417000       1.00800           0
     10922 TIP3     868      TIP3     OH2      OT      -0.834000       15.9994           0
     10923 TIP3     868      TIP3     H1       HT       0.417000       1.00800           0
     10924 TIP3     868      TIP3     H2       HT       0.417000       1.00800           0
     10925 TIP3     869      TIP3     OH2      OT      -0.834000       15.9994           0
     10926 TIP3     869      TIP3     H1       HT       0.417000       1.00800           0
     10927 TIP3     869      TIP3     H2       HT       0.417000       1.00800           0
     10928 TIP3     870      TIP3     OH2      OT      -0.834000       15.9994           0
     10929 TIP3     870      TIP3     H1       HT       0.417000       1.00800           0
     10930 TIP3     870      TIP3     H2       HT       0.417000       1.00800           0
     10931 TIP3     871      TIP3     OH2      OT      -0.834000       15.9994           0
     10932 TIP3     871      TIP3     H1       HT       0.417000       1.00800           0
     10933 TIP3     871      TIP3     H2       HT       0.417000       1.00800           0
     10934 TIP3     872      TIP3     OH2      OT      -0.834000       15.9994           0
     10935 TIP3     872      TIP3     H1       HT       0.417000       1.00800           0
     10936 TIP3     872      TIP3     H2       HT       0.417000       1.00800           0
     10937 TIP3     873      TIP3     OH2      OT      -0.834000       15.9994           0
     10938 TIP3     873      TIP3     H1       HT       0.417000       1.00800           0
     10939 TIP3     873      TIP3     H2       HT       0.417000       1.00800           0
     10940 TIP3     874      TIP3     OH2      OT      -0.834000       15.9994           0
     10941 TIP3     874      TIP3     H1       HT       0.417000       1.00800           0
     10942 TIP3     874      TIP3     H2       HT       0.417000       1.00800           0
     10943 TIP3     875      TIP3     OH2      OT      -0.834000       15.9994           0
     10944 TIP3     875      TIP3     H1       HT       0.417000       1.00800           0
     10945 TIP3     875      TIP3     H2       HT       0.417000       1.00800           0
     10946 TIP3     876      TIP3     OH2      OT      -0.834000       15.9994           0
     10947 TIP3     876      TIP3     H1       HT       0.417000       1.00800           0
     10948 TIP3     876      TIP3     H2       HT       0.417000       1.00800           0
     10949 TIP3     877      TIP3     OH2      OT      -0.834000       15.9994           0
     10950 TIP3     877      TIP3     H1       HT       0.417000       1.00800           0
     10951 TIP3     877      TIP3     H2       HT       0.417000       1.00800           0
     10952 TIP3     878      TIP3     OH2      OT      -0.834000       15.9994           0
     10953 TIP3     878      TIP3     H1       HT       0.417000       1.00800           0
     10954 TIP3     878      TIP3     H2       HT       0.417000       1.00800           0
     10955 TIP3     879      TIP3     OH2      OT      -0.834000       15.9994           0
     10956 TIP3     879      TIP3     H1       HT       0.417000       1.00800           0
     10957 TIP3     879      TIP3     H2       HT       0.417000       1.00800           0
     10958 TIP3     880      TIP3     OH2      OT      -0.834000       15.9994           0
     10959 TIP3     880      TIP3     H1       HT       0.417000       1.00800           0
     10960 TIP3     880      TIP3     H2       HT       0.417000       1.00800           0
     10961 TIP3     881      TIP3     OH2      OT      -0.834000       15.9994           0
     10962 TIP3     881      TIP3     H1       HT       0.417000       1.00800           0
     10963 TIP3     881      TIP3     H2       HT       0.417000       1.00800           0
     10964 TIP3     882      TIP3     OH2      OT      -0.834000       15.9994           0
     10965 TIP3     882      TIP3     H1       HT       0.417000       1.00800           0
     10966 TIP3     882      TIP3     H2       HT       0.417000       1.00800           0
     10967 TIP3     883      TIP3     OH2      OT      -0.834000       15.9994           0
     10968 TIP3     883      TIP3     H1       HT       0.417000       1.00800           0
     10969 TIP3     883      TIP3     H2       HT       0.417000       1.00800           0
     10970 TIP3     884      TIP3     OH2      OT      -0.834000       15.9994           0
     10971 TIP3     884      TIP3     H1       HT       0.417000       1.00800           0
     10972 TIP3     884      TIP3     H2       HT       0.417000       1.00800           0
     10973 TIP3     885      TIP3     OH2      OT      -0.834000       15.9994           0
     10974 TIP3     885      TIP3     H1       HT       0.417000       1.00800           0
     10975 TIP3     885      TIP3     H2       HT       0.417000       1.00800           0
     10976 TIP3     886      TIP3     OH2      OT      -0.834000       15.9994           0
     10977 TIP3     886      TIP3     H1       HT       0.417000       1.00800           0
     10978 TIP3     886      TIP3     H2       HT       0.417000       1.00800           0
     10979 TIP3     887      TIP3     OH2      OT      -0.834000       15.9994           0
     10980 TIP3     887      TIP3     H1       HT       0.417000       1.00800           0
     10981 TIP3     887      TIP3     H2       HT       0.417000       1.00800           0
     10982 TIP3     888      TIP3     OH2      OT      -0.834000       15.9994           0
     10983 TIP3     888      TIP3     H1       HT       0.417000       1.00800           0
     10984 TIP3     888      TIP3     H2       HT       0.417000       1.00800           0
     10985 TIP3     889      TIP3     OH2      OT      -0.834000       15.9994           0
     10986 TIP3     889      TIP3     H1       HT       0.417000       1.00800           0
     10987 TIP3     889      TIP3     H2       HT       0.417000       1.00800           0
     10988 TIP3     890      TIP3     OH2      OT      -0.834000       15.9994           0
     10989 TIP3     890      TIP3     H1       HT       0.417000       1.00800           0
     10990 TIP3     890      TIP3     H2       HT       0.417000       1.00800           0
     10991 TIP3     891      TIP3     OH2      OT      -0.834000       15.9994           0
     10992 TIP3     891      TIP3     H1       HT       0.417000       1.00800           0
     10993 TIP3     891      TIP3     H2       HT       0.417000       1.00800           0
     10994 TIP3     892      TIP3     OH2      OT      -0.834000       15.9994           0
     10995 TIP3     892      TIP3     H1       HT       0.417000       1.00800           0
     10996 TIP3     892      TIP3     H2       HT       0.417000       1.00800           0
     10997 TIP3     893      TIP3     OH2      OT      -0.834000       15.9994           0
     10998 TIP3     893      TIP3     H1       HT       0.417000       1.00800           0
     10999 TIP3     893      TIP3     H2       HT       0.417000       1.00800           0
     11000 TIP3     894      TIP3     OH2      OT      -0.834000       15.9994           0
     11001 TIP3     894      TIP3     H1       HT       0.417000       1.00800           0
     11002 TIP3     894      TIP3     H2       HT       0.417000       1.00800           0
     11003 TIP3     895      TIP3     OH2      OT      -0.834000       15.9994           0
     11004 TIP3     895      TIP3     H1       HT       0.417000       1.00800           0
     11005 TIP3     895      TIP3     H2       HT       0.417000       1.00800           0
     11006 TIP3     896      TIP3     OH2      OT      -0.834000       15.9994           0
     11007 TIP3     896      TIP3     H1       HT       0.417000       1.00800           0
     11008 TIP3     896      TIP3     H2       HT       0.417000       1.00800           0
     11009 TIP3     897      TIP3     OH2      OT      -0.834000       15.9994           0
     11010 TIP3     897      TIP3     H1       HT       0.417000       1.00800           0
     11011 TIP3     897      TIP3     H2       HT       0.417000       1.00800           0
     11012 TIP3     898      TIP3     OH2      OT      -0.834000       15.9994           0
     11013 TIP3     898      TIP3     H1       HT       0.417000       1.00800           0
     11014 TIP3     898      TIP3     H2       HT       0.417000       1.00800           0
     11015 TIP3     899      TIP3     OH2      OT      -0.834000       15.9994           0
     11016 TIP3     899      TIP3     H1       HT       0.417000       1.00800           0
     11017 TIP3     899      TIP3     H2       HT       0.417000       1.00800           0
     11018 TIP3     900      TIP3     OH2      OT      -0.834000       15.9994           0
     11019 TIP3     900      TIP3     H1       HT       0.417000       1.00800           0
     11020 TIP3     900      TIP3     H2       HT       0.417000       1.00800           0
     11021 TIP3     901      TIP3     OH2      OT      -0.834000       15.9994           0
     11022 TIP3     901      TIP3     H1       HT       0.417000       1.00800           0
     11023 TIP3     901      TIP3     H2       HT       0.417000       1.00800           0
     11024 TIP3     902      TIP3     OH2      OT      -0.834000       15.9994           0
     11025 TIP3     902      TIP3     H1       HT       0.417000       1.00800           0
     11026 TIP3     902      TIP3     H2       HT       0.417000       1.00800           0
     11027 TIP3     903      TIP3     OH2      OT      -0.834000       15.9994           0
     11028 TIP3     903      TIP3     H1       HT       0.417000       1.00800           0
     11029 TIP3     903      TIP3     H2       HT       0.417000       1.00800           0
     11030 TIP3     904      TIP3     OH2      OT      -0.834000       15.9994           0
     11031 TIP3     904      TIP3     H1       HT       0.417000       1.00800           0
     11032 TIP3     904      TIP3     H2       HT       0.417000       1.00800           0
     11033 TIP3     905      TIP3     OH2      OT      -0.834000       15.9994           0
     11034 TIP3     905      TIP3     H1       HT       0.417000       1.00800           0
     11035 TIP3     905      TIP3     H2       HT       0.417000       1.00800           0
     11036 TIP3     906      TIP3     OH2      OT      -0.834000       15.9994           0
     11037 TIP3     906      TIP3     H1       HT       0.417000       1.00800           0
     11038 TIP3     906      TIP3     H2       HT       0.417000       1.00800           0
     11039 TIP3     907      TIP3     OH2      OT      -0.834000       15.9994           0
     11040 TIP3     907      TIP3     H1       HT       0.417000       1.00800           0
     11041 TIP3     907      TIP3     H2       HT       0.417000       1.00800           0
     11042 TIP3     908      TIP3     OH2      OT      -0.834000       15.9994           0
     11043 TIP3     908      TIP3     H1       HT       0.417000       1.00800           0
     11044 TIP3     908      TIP3     H2       HT       0.417000       1.00800           0
     11045 TIP3     909      TIP3     OH2      OT      -0.834000       15.9994           0
     11046 TIP3     909      TIP3     H1       HT       0.417000       1.00800           0
     11047 TIP3     909      TIP3     H2       HT       0.417000       1.00800           0
     11048 TIP3     910      TIP3     OH2      OT      -0.834000       15.9994           0
     11049 TIP3     910      TIP3     H1       HT       0.417000       1.00800           0
     11050 TIP3     910      TIP3     H2       HT       0.417000       1.00800           0
     11051 TIP3     911      TIP3     OH2      OT      -0.834000       15.9994           0
     11052 TIP3     911      TIP3     H1       HT       0.417000       1.00800           0
     11053 TIP3     911      TIP3     H2       HT       0.417000       1.00800           0
     11054 TIP3     912      TIP3     OH2      OT      -0.834000       15.9994           0
     11055 TIP3     912      TIP3     H1       HT       0.417000       1.00800           0
     11056 TIP3     912      TIP3     H2       HT       0.417000       1.00800           0
     11057 TIP3     913      TIP3     OH2      OT      -0.834000       15.9994           0
     11058 TIP3     913      TIP3     H1       HT       0.417000       1.00800           0
     11059 TIP3     913      TIP3     H2       HT       0.417000       1.00800           0
     11060 TIP3     914      TIP3     OH2      OT      -0.834000       15.9994           0
     11061 TIP3     914      TIP3     H1       HT       0.417000       1.00800           0
     11062 TIP3     914      TIP3     H2       HT       0.417000       1.00800           0
     11063 TIP3     915      TIP3     OH2      OT      -0.834000       15.9994           0
     11064 TIP3     915      TIP3     H1       HT       0.417000       1.00800           0
     11065 TIP3     915      TIP3     H2       HT       0.417000       1.00800           0
     11066 TIP3     916      TIP3     OH2      OT      -0.834000       15.9994           0
     11067 TIP3     916      TIP3     H1       HT       0.417000       1.00800           0
     11068 TIP3     916      TIP3     H2       HT       0.417000       1.00800           0
     11069 TIP3     917      TIP3     OH2      OT      -0.834000       15.9994           0
     11070 TIP3     917      TIP3     H1       HT       0.417000       1.00800           0
     11071 TIP3     917      TIP3     H2       HT       0.417000       1.00800           0
     11072 TIP3     918      TIP3     OH2      OT      -0.834000       15.9994           0
     11073 TIP3     918      TIP3     H1       HT       0.417000       1.00800           0
     11074 TIP3     918      TIP3     H2       HT       0.417000       1.00800           0
     11075 TIP3     919      TIP3     OH2      OT      -0.834000       15.9994           0
     11076 TIP3     919      TIP3     H1       HT       0.417000       1.00800           0
     11077 TIP3     919      TIP3     H2       HT       0.417000       1.00800           0
     11078 TIP3     920      TIP3     OH2      OT      -0.834000       15.9994           0
     11079 TIP3     920      TIP3     H1       HT       0.417000       1.00800           0
     11080 TIP3     920      TIP3     H2       HT       0.417000       1.00800           0
     11081 TIP3     921      TIP3     OH2      OT      -0.834000       15.9994           0
     11082 TIP3     921      TIP3     H1       HT       0.417000       1.00800           0
     11083 TIP3     921      TIP3     H2       HT       0.417000       1.00800           0
     11084 TIP3     922      TIP3     OH2      OT      -0.834000       15.9994           0
     11085 TIP3     922      TIP3     H1       HT       0.417000       1.00800           0
     11086 TIP3     922      TIP3     H2       HT       0.417000       1.00800           0
     11087 TIP3     923      TIP3     OH2      OT      -0.834000       15.9994           0
     11088 TIP3     923      TIP3     H1       HT       0.417000       1.00800           0
     11089 TIP3     923      TIP3     H2       HT       0.417000       1.00800           0
     11090 TIP3     924      TIP3     OH2      OT      -0.834000       15.9994           0
     11091 TIP3     924      TIP3     H1       HT       0.417000       1.00800           0
     11092 TIP3     924      TIP3     H2       HT       0.417000       1.00800           0
     11093 TIP3     925      TIP3     OH2      OT      -0.834000       15.9994           0
     11094 TIP3     925      TIP3     H1       HT       0.417000       1.00800           0
     11095 TIP3     925      TIP3     H2       HT       0.417000       1.00800           0
     11096 TIP3     926      TIP3     OH2      OT      -0.834000       15.9994           0
     11097 TIP3     926      TIP3     H1       HT       0.417000       1.00800           0
     11098 TIP3     926      TIP3     H2       HT       0.417000       1.00800           0
     11099 TIP3     927      TIP3     OH2      OT      -0.834000       15.9994           0
     11100 TIP3     927      TIP3     H1       HT       0.417000       1.00800           0
     11101 TIP3     927      TIP3     H2       HT       0.417000       1.00800           0
     11102 TIP3     928      TIP3     OH2      OT      -0.834000       15.9994           0
     11103 TIP3     928      TIP3     H1       HT       0.417000       1.00800           0
     11104 TIP3     928      TIP3     H2       HT       0.417000       1.00800           0
     11105 TIP3     929      TIP3     OH2      OT      -0.834000       15.9994           0
     11106 TIP3     929      TIP3     H1       HT       0.417000       1.00800           0
     11107 TIP3     929      TIP3     H2       HT       0.417000       1.00800           0
     11108 TIP3     930      TIP3     OH2      OT      -0.834000       15.9994           0
     11109 TIP3     930      TIP3     H1       HT       0.417000       1.00800           0
     11110 TIP3     930      TIP3     H2       HT       0.417000       1.00800           0
     11111 TIP3     931      TIP3     OH2      OT      -0.834000       15.9994           0
     11112 TIP3     931      TIP3     H1       HT       0.417000       1.00800           0
     11113 TIP3     931      TIP3     H2       HT       0.417000       1.00800           0
     11114 TIP3     932      TIP3     OH2      OT      -0.834000       15.9994           0
     11115 TIP3     932      TIP3     H1       HT       0.417000       1.00800           0
     11116 TIP3     932      TIP3     H2       HT       0.417000       1.00800           0
     11117 TIP3     933      TIP3     OH2      OT      -0.834000       15.9994           0
     11118 TIP3     933      TIP3     H1       HT       0.417000       1.00800           0
     11119 TIP3     933      TIP3     H2       HT       0.417000       1.00800           0
     11120 TIP3     934      TIP3     OH2      OT      -0.834000       15.9994           0
     11121 TIP3     934      TIP3     H1       HT       0.417000       1.00800           0
     11122 TIP3     934      TIP3     H2       HT       0.417000       1.00800           0
     11123 TIP3     935      TIP3     OH2      OT      -0.834000       15.9994           0
     11124 TIP3     935      TIP3     H1       HT       0.417000       1.00800           0
     11125 TIP3     935      TIP3     H2       HT       0.417000       1.00800           0
     11126 TIP3     936      TIP3     OH2      OT      -0.834000       15.9994           0
     11127 TIP3     936      TIP3     H1       HT       0.417000       1.00800           0
     11128 TIP3     936      TIP3     H2       HT       0.417000       1.00800           0
     11129 TIP3     937      TIP3     OH2      OT      -0.834000       15.9994           0
     11130 TIP3     937      TIP3     H1       HT       0.417000       1.00800           0
     11131 TIP3     937      TIP3     H2       HT       0.417000       1.00800           0
     11132 TIP3     938      TIP3     OH2      OT      -0.834000       15.9994           0
     11133 TIP3     938      TIP3     H1       HT       0.417000       1.00800           0
     11134 TIP3     938      TIP3     H2       HT       0.417000       1.00800           0
     11135 TIP3     939      TIP3     OH2      OT      -0.834000       15.9994           0
     11136 TIP3     939      TIP3     H1       HT       0.417000       1.00800           0
     11137 TIP3     939      TIP3     H2       HT       0.417000       1.00800           0
     11138 TIP3     940      TIP3     OH2      OT      -0.834000       15.9994           0
     11139 TIP3     940      TIP3     H1       HT       0.417000       1.00800           0
     11140 TIP3     940      TIP3     H2       HT       0.417000       1.00800           0
     11141 TIP3     941      TIP3     OH2      OT      -0.834000       15.9994           0
     11142 TIP3     941      TIP3     H1       HT       0.417000       1.00800           0
     11143 TIP3     941      TIP3     H2       HT       0.417000       1.00800           0
     11144 TIP3     942      TIP3     OH2      OT      -0.834000       15.9994           0
     11145 TIP3     942      TIP3     H1       HT       0.417000       1.00800           0
     11146 TIP3     942      TIP3     H2       HT       0.417000       1.00800           0
     11147 TIP3     943      TIP3     OH2      OT      -0.834000       15.9994           0
     11148 TIP3     943      TIP3     H1       HT       0.417000       1.00800           0
     11149 TIP3     943      TIP3     H2       HT       0.417000       1.00800           0
     11150 TIP3     944      TIP3     OH2      OT      -0.834000       15.9994           0
     11151 TIP3     944      TIP3     H1       HT       0.417000       1.00800           0
     11152 TIP3     944      TIP3     H2       HT       0.417000       1.00800           0
     11153 TIP3     945      TIP3     OH2      OT      -0.834000       15.9994           0
     11154 TIP3     945      TIP3     H1       HT       0.417000       1.00800           0
     11155 TIP3     945      TIP3     H2       HT       0.417000       1.00800           0
     11156 TIP3     946      TIP3     OH2      OT      -0.834000       15.9994           0
     11157 TIP3     946      TIP3     H1       HT       0.417000       1.00800           0
     11158 TIP3     946      TIP3     H2       HT       0.417000       1.00800           0
     11159 TIP3     947      TIP3     OH2      OT      -0.834000       15.9994           0
     11160 TIP3     947      TIP3     H1       HT       0.417000       1.00800           0
     11161 TIP3     947      TIP3     H2       HT       0.417000       1.00800           0
     11162 TIP3     948      TIP3     OH2      OT      -0.834000       15.9994           0
     11163 TIP3     948      TIP3     H1       HT       0.417000       1.00800           0
     11164 TIP3     948      TIP3     H2       HT       0.417000       1.00800           0
     11165 TIP3     949      TIP3     OH2      OT      -0.834000       15.9994           0
     11166 TIP3     949      TIP3     H1       HT       0.417000       1.00800           0
     11167 TIP3     949      TIP3     H2       HT       0.417000       1.00800           0
     11168 TIP3     950      TIP3     OH2      OT      -0.834000       15.9994           0
     11169 TIP3     950      TIP3     H1       HT       0.417000       1.00800           0
     11170 TIP3     950      TIP3     H2       HT       0.417000       1.00800           0
     11171 TIP3     951      TIP3     OH2      OT      -0.834000       15.9994           0
     11172 TIP3     951      TIP3     H1       HT       0.417000       1.00800           0
     11173 TIP3     951      TIP3     H2       HT       0.417000       1.00800           0
     11174 TIP3     952      TIP3     OH2      OT      -0.834000       15.9994           0
     11175 TIP3     952      TIP3     H1       HT       0.417000       1.00800           0
     11176 TIP3     952      TIP3     H2       HT       0.417000       1.00800           0
     11177 TIP3     953      TIP3     OH2      OT      -0.834000       15.9994           0
     11178 TIP3     953      TIP3     H1       HT       0.417000       1.00800           0
     11179 TIP3     953      TIP3     H2       HT       0.417000       1.00800           0
     11180 TIP3     954      TIP3     OH2      OT      -0.834000       15.9994           0
     11181 TIP3     954      TIP3     H1       HT       0.417000       1.00800           0
     11182 TIP3     954      TIP3     H2       HT       0.417000       1.00800           0
     11183 TIP3     955      TIP3     OH2      OT      -0.834000       15.9994           0
     11184 TIP3     955      TIP3     H1       HT       0.417000       1.00800           0
     11185 TIP3     955      TIP3     H2       HT       0.417000       1.00800           0
     11186 TIP3     956      TIP3     OH2      OT      -0.834000       15.9994           0
     11187 TIP3     956      TIP3     H1       HT       0.417000       1.00800           0
     11188 TIP3     956      TIP3     H2       HT       0.417000       1.00800           0
     11189 TIP3     957      TIP3     OH2      OT      -0.834000       15.9994           0
     11190 TIP3     957      TIP3     H1       HT       0.417000       1.00800           0
     11191 TIP3     957      TIP3     H2       HT       0.417000       1.00800           0
     11192 TIP3     958      TIP3     OH2      OT      -0.834000       15.9994           0
     11193 TIP3     958      TIP3     H1       HT       0.417000       1.00800           0
     11194 TIP3     958      TIP3     H2       HT       0.417000       1.00800           0
     11195 TIP3     959      TIP3     OH2      OT      -0.834000       15.9994           0
     11196 TIP3     959      TIP3     H1       HT       0.417000       1.00800           0
     11197 TIP3     959      TIP3     H2       HT       0.417000       1.00800           0
     11198 TIP3     960      TIP3     OH2      OT      -0.834000       15.9994           0
     11199 TIP3     960      TIP3     H1       HT       0.417000       1.00800           0
     11200 TIP3     960      TIP3     H2       HT       0.417000       1.00800           0
     11201 TIP3     961      TIP3     OH2      OT      -0.834000       15.9994           0
     11202 TIP3     961      TIP3     H1       HT       0.417000       1.00800           0
     11203 TIP3     961      TIP3     H2       HT       0.417000       1.00800           0
     11204 TIP3     962      TIP3     OH2      OT      -0.834000       15.9994           0
     11205 TIP3     962      TIP3     H1       HT       0.417000       1.00800           0
     11206 TIP3     962      TIP3     H2       HT       0.417000       1.00800           0
     11207 TIP3     963      TIP3     OH2      OT      -0.834000       15.9994           0
     11208 TIP3     963      TIP3     H1       HT       0.417000       1.00800           0
     11209 TIP3     963      TIP3     H2       HT       0.417000       1.00800           0
     11210 TIP3     964      TIP3     OH2      OT      -0.834000       15.9994           0
     11211 TIP3     964      TIP3     H1       HT       0.417000       1.00800           0
     11212 TIP3     964      TIP3     H2       HT       0.417000       1.00800           0
     11213 TIP3     965      TIP3     OH2      OT      -0.834000       15.9994           0
     11214 TIP3     965      TIP3     H1       HT       0.417000       1.00800           0
     11215 TIP3     965      TIP3     H2       HT       0.417000       1.00800           0
     11216 TIP3     966      TIP3     OH2      OT      -0.834000       15.9994           0
     11217 TIP3     966      TIP3     H1       HT       0.417000       1.00800           0
     11218 TIP3     966      TIP3     H2       HT       0.417000       1.00800           0
     11219 TIP3     967      TIP3     OH2      OT      -0.834000       15.9994           0
     11220 TIP3     967      TIP3     H1       HT       0.417000       1.00800           0
     11221 TIP3     967      TIP3     H2       HT       0.417000       1.00800           0
     11222 TIP3     968      TIP3     OH2      OT      -0.834000       15.9994           0
     11223 TIP3     968      TIP3     H1       HT       0.417000       1.00800           0
     11224 TIP3     968      TIP3     H2       HT       0.417000       1.00800           0
     11225 TIP3     969      TIP3     OH2      OT      -0.834000       15.9994           0
     11226 TIP3     969      TIP3     H1       HT       0.417000       1.00800           0
     11227 TIP3     969      TIP3     H2       HT       0.417000       1.00800           0
     11228 TIP3     970      TIP3     OH2      OT      -0.834000       15.9994           0
     11229 TIP3     970      TIP3     H1       HT       0.417000       1.00800           0
     11230 TIP3     970      TIP3     H2       HT       0.417000       1.00800           0
     11231 TIP3     971      TIP3     OH2      OT      -0.834000       15.9994           0
     11232 TIP3     971      TIP3     H1       HT       0.417000       1.00800           0
     11233 TIP3     971      TIP3     H2       HT       0.417000       1.00800           0
     11234 TIP3     972      TIP3     OH2      OT      -0.834000       15.9994           0
     11235 TIP3     972      TIP3     H1       HT       0.417000       1.00800           0
     11236 TIP3     972      TIP3     H2       HT       0.417000       1.00800           0
     11237 TIP3     973      TIP3     OH2      OT      -0.834000       15.9994           0
     11238 TIP3     973      TIP3     H1       HT       0.417000       1.00800           0
     11239 TIP3     973      TIP3     H2       HT       0.417000       1.00800           0
     11240 TIP3     974      TIP3     OH2      OT      -0.834000       15.9994           0
     11241 TIP3     974      TIP3     H1       HT       0.417000       1.00800           0
     11242 TIP3     974      TIP3     H2       HT       0.417000       1.00800           0
     11243 TIP3     975      TIP3     OH2      OT      -0.834000       15.9994           0
     11244 TIP3     975      TIP3     H1       HT       0.417000       1.00800           0
     11245 TIP3     975      TIP3     H2       HT       0.417000       1.00800           0
     11246 TIP3     976      TIP3     OH2      OT      -0.834000       15.9994           0
     11247 TIP3     976      TIP3     H1       HT       0.417000       1.00800           0
     11248 TIP3     976      TIP3     H2       HT       0.417000       1.00800           0
     11249 TIP3     977      TIP3     OH2      OT      -0.834000       15.9994           0
     11250 TIP3     977      TIP3     H1       HT       0.417000       1.00800           0
     11251 TIP3     977      TIP3     H2       HT       0.417000       1.00800           0
     11252 TIP3     978      TIP3     OH2      OT      -0.834000       15.9994           0
     11253 TIP3     978      TIP3     H1       HT       0.417000       1.00800           0
     11254 TIP3     978      TIP3     H2       HT       0.417000       1.00800           0
     11255 TIP3     979      TIP3     OH2      OT      -0.834000       15.9994           0
     11256 TIP3     979      TIP3     H1       HT       0.417000       1.00800           0
     11257 TIP3     979      TIP3     H2       HT       0.417000       1.00800           0
     11258 TIP3     980      TIP3     OH2      OT      -0.834000       15.9994           0
     11259 TIP3     980      TIP3     H1       HT       0.417000       1.00800           0
     11260 TIP3     980      TIP3     H2       HT       0.417000       1.00800           0
     11261 TIP3     981      TIP3     OH2      OT      -0.834000       15.9994           0
     11262 TIP3     981      TIP3     H1       HT       0.417000       1.00800           0
     11263 TIP3     981      TIP3     H2       HT       0.417000       1.00800           0
     11264 TIP3     982      TIP3     OH2      OT      -0.834000       15.9994           0
     11265 TIP3     982      TIP3     H1       HT       0.417000       1.00800           0
     11266 TIP3     982      TIP3     H2       HT       0.417000       1.00800           0
     11267 TIP3     983      TIP3     OH2      OT      -0.834000       15.9994           0
     11268 TIP3     983      TIP3     H1       HT       0.417000       1.00800           0
     11269 TIP3     983      TIP3     H2       HT       0.417000       1.00800           0
     11270 TIP3     984      TIP3     OH2      OT      -0.834000       15.9994           0
     11271 TIP3     984      TIP3     H1       HT       0.417000       1.00800           0
     11272 TIP3     984      TIP3     H2       HT       0.417000       1.00800           0
     11273 TIP3     985      TIP3     OH2      OT      -0.834000       15.9994           0
     11274 TIP3     985      TIP3     H1       HT       0.417000       1.00800           0
     11275 TIP3     985      TIP3     H2       HT       0.417000       1.00800           0
     11276 TIP3     986      TIP3     OH2      OT      -0.834000       15.9994           0
     11277 TIP3     986      TIP3     H1       HT       0.417000       1.00800           0
     11278 TIP3     986      TIP3     H2       HT       0.417000       1.00800           0
     11279 TIP3     987      TIP3     OH2      OT      -0.834000       15.9994           0
     11280 TIP3     987      TIP3     H1       HT       0.417000       1.00800           0
     11281 TIP3     987      TIP3     H2       HT       0.417000       1.00800           0
     11282 TIP3     988      TIP3     OH2      OT      -0.834000       15.9994           0
     11283 TIP3     988      TIP3     H1       HT       0.417000       1.00800           0
     11284 TIP3     988      TIP3     H2       HT       0.417000       1.00800           0
     11285 TIP3     989      TIP3     OH2      OT      -0.834000       15.9994           0
     11286 TIP3     989      TIP3     H1       HT       0.417000       1.00800           0
     11287 TIP3     989      TIP3     H2       HT       0.417000       1.00800           0
     11288 TIP3     990      TIP3     OH2      OT      -0.834000       15.9994           0
     11289 TIP3     990      TIP3     H1       HT       0.417000       1.00800           0
     11290 TIP3     990      TIP3     H2       HT       0.417000       1.00800           0
     11291 TIP3     991      TIP3     OH2      OT      -0.834000       15.9994           0
     11292 TIP3     991      TIP3     H1       HT       0.417000       1.00800           0
     11293 TIP3     991      TIP3     H2       HT       0.417000       1.00800           0
     11294 TIP3     992      TIP3     OH2      OT      -0.834000       15.9994           0
     11295 TIP3     992      TIP3     H1       HT       0.417000       1.00800           0
     11296 TIP3     992      TIP3     H2       HT       0.417000       1.00800           0
     11297 TIP3     993      TIP3     OH2      OT      -0.834000       15.9994           0
     11298 TIP3     993      TIP3     H1       HT       0.417000       1.00800           0
     11299 TIP3     993      TIP3     H2       HT       0.417000       1.00800           0
     11300 TIP3     994      TIP3     OH2      OT      -0.834000       15.9994           0
     11301 TIP3     994      TIP3     H1       HT       0.417000       1.00800           0
     11302 TIP3     994      TIP3     H2       HT       0.417000       1.00800           0
     11303 TIP3     995      TIP3     OH2      OT      -0.834000       15.9994           0
     11304 TIP3     995      TIP3     H1       HT       0.417000       1.00800           0
     11305 TIP3     995      TIP3     H2       HT       0.417000       1.00800           0
     11306 TIP3     996      TIP3     OH2      OT      -0.834000       15.9994           0
     11307 TIP3     996      TIP3     H1       HT       0.417000       1.00800           0
     11308 TIP3     996      TIP3     H2       HT       0.417000       1.00800           0
     11309 TIP3     997      TIP3     OH2      OT      -0.834000       15.9994           0
     11310 TIP3     997      TIP3     H1       HT       0.417000       1.00800           0
     11311 TIP3     997      TIP3     H2       HT       0.417000       1.00800           0
     11312 TIP3     998      TIP3     OH2      OT      -0.834000       15.9994           0
     11313 TIP3     998      TIP3     H1       HT       0.417000       1.00800           0
     11314 TIP3     998      TIP3     H2       HT       0.417000       1.00800           0
     11315 TIP3     999      TIP3     OH2      OT      -0.834000       15.9994           0
     11316 TIP3     999      TIP3     H1       HT       0.417000       1.00800           0
     11317 TIP3     999      TIP3     H2       HT       0.417000       1.00800           0
     11318 TIP3     1000     TIP3     OH2      OT      -0.834000       15.9994           0
     11319 TIP3     1000     TIP3     H1       HT       0.417000       1.00800           0
     11320 TIP3     1000     TIP3     H2       HT       0.417000       1.00800           0
     11321 TIP3     1001     TIP3     OH2      OT      -0.834000       15.9994           0
     11322 TIP3     1001     TIP3     H1       HT       0.417000       1.00800           0
     11323 TIP3     1001     TIP3     H2       HT       0.417000       1.00800           0
     11324 TIP3     1002     TIP3     OH2      OT      -0.834000       15.9994           0
     11325 TIP3     1002     TIP3     H1       HT       0.417000       1.00800           0
     11326 TIP3     1002     TIP3     H2       HT       0.417000       1.00800           0
     11327 TIP3     1003     TIP3     OH2      OT      -0.834000       15.9994           0
     11328 TIP3     1003     TIP3     H1       HT       0.417000       1.00800           0
     11329 TIP3     1003     TIP3     H2       HT       0.417000       1.00800           0
     11330 TIP3     1004     TIP3     OH2      OT      -0.834000       15.9994           0
     11331 TIP3     1004     TIP3     H1       HT       0.417000       1.00800           0
     11332 TIP3     1004     TIP3     H2       HT       0.417000       1.00800           0
     11333 TIP3     1005     TIP3     OH2      OT      -0.834000       15.9994           0
     11334 TIP3     1005     TIP3     H1       HT       0.417000       1.00800           0
     11335 TIP3     1005     TIP3     H2       HT       0.417000       1.00800           0
     11336 TIP3     1006     TIP3     OH2      OT      -0.834000       15.9994           0
     11337 TIP3     1006     TIP3     H1       HT       0.417000       1.00800           0
     11338 TIP3     1006     TIP3     H2       HT       0.417000       1.00800           0
     11339 TIP3     1007     TIP3     OH2      OT      -0.834000       15.9994           0
     11340 TIP3     1007     TIP3     H1       HT       0.417000       1.00800           0
     11341 TIP3     1007     TIP3     H2       HT       0.417000       1.00800           0
     11342 TIP3     1008     TIP3     OH2      OT      -0.834000       15.9994           0
     11343 TIP3     1008     TIP3     H1       HT       0.417000       1.00800           0
     11344 TIP3     1008     TIP3     H2       HT       0.417000       1.00800           0
     11345 TIP3     1009     TIP3     OH2      OT      -0.834000       15.9994           0
     11346 TIP3     1009     TIP3     H1       HT       0.417000       1.00800           0
     11347 TIP3     1009     TIP3     H2       HT       0.417000       1.00800           0
     11348 TIP3     1010     TIP3     OH2      OT      -0.834000       15.9994           0
     11349 TIP3     1010     TIP3     H1       HT       0.417000       1.00800           0
     11350 TIP3     1010     TIP3     H2       HT       0.417000       1.00800           0
     11351 TIP3     1011     TIP3     OH2      OT      -0.834000       15.9994           0
     11352 TIP3     1011     TIP3     H1       HT       0.417000       1.00800           0
     11353 TIP3     1011     TIP3     H2       HT       0.417000       1.00800           0
     11354 TIP3     1012     TIP3     OH2      OT      -0.834000       15.9994           0
     11355 TIP3     1012     TIP3     H1       HT       0.417000       1.00800           0
     11356 TIP3     1012     TIP3     H2       HT       0.417000       1.00800           0
     11357 TIP3     1013     TIP3     OH2      OT      -0.834000       15.9994           0
     11358 TIP3     1013     TIP3     H1       HT       0.417000       1.00800           0
     11359 TIP3     1013     TIP3     H2       HT       0.417000       1.00800           0
     11360 TIP3     1014     TIP3     OH2      OT      -0.834000       15.9994           0
     11361 TIP3     1014     TIP3     H1       HT       0.417000       1.00800           0
     11362 TIP3     1014     TIP3     H2       HT       0.417000       1.00800           0
     11363 TIP3     1015     TIP3     OH2      OT      -0.834000       15.9994           0
     11364 TIP3     1015     TIP3     H1       HT       0.417000       1.00800           0
     11365 TIP3     1015     TIP3     H2       HT       0.417000       1.00800           0
     11366 TIP3     1016     TIP3     OH2      OT      -0.834000       15.9994           0
     11367 TIP3     1016     TIP3     H1       HT       0.417000       1.00800           0
     11368 TIP3     1016     TIP3     H2       HT       0.417000       1.00800           0
     11369 TIP3     1017     TIP3     OH2      OT      -0.834000       15.9994           0
     11370 TIP3     1017     TIP3     H1       HT       0.417000       1.00800           0
     11371 TIP3     1017     TIP3     H2       HT       0.417000       1.00800           0
     11372 TIP3     1018     TIP3     OH2      OT      -0.834000       15.9994           0
     11373 TIP3     1018     TIP3     H1       HT       0.417000       1.00800           0
     11374 TIP3     1018     TIP3     H2       HT       0.417000       1.00800           0
     11375 TIP3     1019     TIP3     OH2      OT      -0.834000       15.9994           0
     11376 TIP3     1019     TIP3     H1       HT       0.417000       1.00800           0
     11377 TIP3     1019     TIP3     H2       HT       0.417000       1.00800           0
     11378 TIP3     1020     TIP3     OH2      OT      -0.834000       15.9994           0
     11379 TIP3     1020     TIP3     H1       HT       0.417000       1.00800           0
     11380 TIP3     1020     TIP3     H2       HT       0.417000       1.00800           0
     11381 TIP3     1021     TIP3     OH2      OT      -0.834000       15.9994           0
     11382 TIP3     1021     TIP3     H1       HT       0.417000       1.00800           0
     11383 TIP3     1021     TIP3     H2       HT       0.417000       1.00800           0
     11384 TIP3     1022     TIP3     OH2      OT      -0.834000       15.9994           0
     11385 TIP3     1022     TIP3     H1       HT       0.417000       1.00800           0
     11386 TIP3     1022     TIP3     H2       HT       0.417000       1.00800           0
     11387 TIP3     1023     TIP3     OH2      OT      -0.834000       15.9994           0
     11388 TIP3     1023     TIP3     H1       HT       0.417000       1.00800           0
     11389 TIP3     1023     TIP3     H2       HT       0.417000       1.00800           0
     11390 TIP3     1024     TIP3     OH2      OT      -0.834000       15.9994           0
     11391 TIP3     1024     TIP3     H1       HT       0.417000       1.00800           0
     11392 TIP3     1024     TIP3     H2       HT       0.417000       1.00800           0
     11393 TIP3     1025     TIP3     OH2      OT      -0.834000       15.9994           0
     11394 TIP3     1025     TIP3     H1       HT       0.417000       1.00800           0
     11395 TIP3     1025     TIP3     H2       HT       0.417000       1.00800           0
     11396 TIP3     1026     TIP3     OH2      OT      -0.834000       15.9994           0
     11397 TIP3     1026     TIP3     H1       HT       0.417000       1.00800           0
     11398 TIP3     1026     TIP3     H2       HT       0.417000       1.00800           0
     11399 TIP3     1027     TIP3     OH2      OT      -0.834000       15.9994           0
     11400 TIP3     1027     TIP3     H1       HT       0.417000       1.00800           0
     11401 TIP3     1027     TIP3     H2       HT       0.417000       1.00800           0
     11402 TIP3     1028     TIP3     OH2      OT      -0.834000       15.9994           0
     11403 TIP3     1028     TIP3     H1       HT       0.417000       1.00800           0
     11404 TIP3     1028     TIP3     H2       HT       0.417000       1.00800           0
     11405 TIP3     1029     TIP3     OH2      OT      -0.834000       15.9994           0
     11406 TIP3     1029     TIP3     H1       HT       0.417000       1.00800           0
     11407 TIP3     1029     TIP3     H2       HT       0.417000       1.00800           0
     11408 TIP3     1030     TIP3     OH2      OT      -0.834000       15.9994           0
     11409 TIP3     1030     TIP3     H1       HT       0.417000       1.00800           0
     11410 TIP3     1030     TIP3     H2       HT       0.417000       1.00800           0
     11411 TIP3     1031     TIP3     OH2      OT      -0.834000       15.9994           0
     11412 TIP3     1031     TIP3     H1       HT       0.417000       1.00800           0
     11413 TIP3     1031     TIP3     H2       HT       0.417000       1.00800           0
     11414 TIP3     1032     TIP3     OH2      OT      -0.834000       15.9994           0
     11415 TIP3     1032     TIP3     H1       HT       0.417000       1.00800           0
     11416 TIP3     1032     TIP3     H2       HT       0.417000       1.00800           0
     11417 TIP3     1033     TIP3     OH2      OT      -0.834000       15.9994           0
     11418 TIP3     1033     TIP3     H1       HT       0.417000       1.00800           0
     11419 TIP3     1033     TIP3     H2       HT       0.417000       1.00800           0
     11420 TIP3     1034     TIP3     OH2      OT      -0.834000       15.9994           0
     11421 TIP3     1034     TIP3     H1       HT       0.417000       1.00800           0
     11422 TIP3     1034     TIP3     H2       HT       0.417000       1.00800           0
     11423 TIP3     1035     TIP3     OH2      OT      -0.834000       15.9994           0
     11424 TIP3     1035     TIP3     H1       HT       0.417000       1.00800           0
     11425 TIP3     1035     TIP3     H2       HT       0.417000       1.00800           0
     11426 TIP3     1036     TIP3     OH2      OT      -0.834000       15.9994           0
     11427 TIP3     1036     TIP3     H1       HT       0.417000       1.00800           0
     11428 TIP3     1036     TIP3     H2       HT       0.417000       1.00800           0
     11429 TIP3     1037     TIP3     OH2      OT      -0.834000       15.9994           0
     11430 TIP3     1037     TIP3     H1       HT       0.417000       1.00800           0
     11431 TIP3     1037     TIP3     H2       HT       0.417000       1.00800           0
     11432 TIP3     1038     TIP3     OH2      OT      -0.834000       15.9994           0
     11433 TIP3     1038     TIP3     H1       HT       0.417000       1.00800           0
     11434 TIP3     1038     TIP3     H2       HT       0.417000       1.00800           0
     11435 TIP3     1039     TIP3     OH2      OT      -0.834000       15.9994           0
     11436 TIP3     1039     TIP3     H1       HT       0.417000       1.00800           0
     11437 TIP3     1039     TIP3     H2       HT       0.417000       1.00800           0
     11438 TIP3     1040     TIP3     OH2      OT      -0.834000       15.9994           0
     11439 TIP3     1040     TIP3     H1       HT       0.417000       1.00800           0
     11440 TIP3     1040     TIP3     H2       HT       0.417000       1.00800           0
     11441 TIP3     1041     TIP3     OH2      OT      -0.834000       15.9994           0
     11442 TIP3     1041     TIP3     H1       HT       0.417000       1.00800           0
     11443 TIP3     1041     TIP3     H2       HT       0.417000       1.00800           0
     11444 TIP3     1042     TIP3     OH2      OT      -0.834000       15.9994           0
     11445 TIP3     1042     TIP3     H1       HT       0.417000       1.00800           0
     11446 TIP3     1042     TIP3     H2       HT       0.417000       1.00800           0
     11447 TIP3     1043     TIP3     OH2      OT      -0.834000       15.9994           0
     11448 TIP3     1043     TIP3     H1       HT       0.417000       1.00800           0
     11449 TIP3     1043     TIP3     H2       HT       0.417000       1.00800           0
     11450 TIP3     1044     TIP3     OH2      OT      -0.834000       15.9994           0
     11451 TIP3     1044     TIP3     H1       HT       0.417000       1.00800           0
     11452 TIP3     1044     TIP3     H2       HT       0.417000       1.00800           0
     11453 TIP3     1045     TIP3     OH2      OT      -0.834000       15.9994           0
     11454 TIP3     1045     TIP3     H1       HT       0.417000       1.00800           0
     11455 TIP3     1045     TIP3     H2       HT       0.417000       1.00800           0
     11456 TIP3     1046     TIP3     OH2      OT      -0.834000       15.9994           0
     11457 TIP3     1046     TIP3     H1       HT       0.417000       1.00800           0
     11458 TIP3     1046     TIP3     H2       HT       0.417000       1.00800           0
     11459 TIP3     1047     TIP3     OH2      OT      -0.834000       15.9994           0
     11460 TIP3     1047     TIP3     H1       HT       0.417000       1.00800           0
     11461 TIP3     1047     TIP3     H2       HT       0.417000       1.00800           0
     11462 TIP3     1048     TIP3     OH2      OT      -0.834000       15.9994           0
     11463 TIP3     1048     TIP3     H1       HT       0.417000       1.00800           0
     11464 TIP3     1048     TIP3     H2       HT       0.417000       1.00800           0
     11465 TIP3     1049     TIP3     OH2      OT      -0.834000       15.9994           0
     11466 TIP3     1049     TIP3     H1       HT       0.417000       1.00800           0
     11467 TIP3     1049     TIP3     H2       HT       0.417000       1.00800           0
     11468 TIP3     1050     TIP3     OH2      OT      -0.834000       15.9994           0
     11469 TIP3     1050     TIP3     H1       HT       0.417000       1.00800           0
     11470 TIP3     1050     TIP3     H2       HT       0.417000       1.00800           0
     11471 TIP3     1051     TIP3     OH2      OT      -0.834000       15.9994           0
     11472 TIP3     1051     TIP3     H1       HT       0.417000       1.00800           0
     11473 TIP3     1051     TIP3     H2       HT       0.417000       1.00800           0
     11474 TIP3     1052     TIP3     OH2      OT      -0.834000       15.9994           0
     11475 TIP3     1052     TIP3     H1       HT       0.417000       1.00800           0
     11476 TIP3     1052     TIP3     H2       HT       0.417000       1.00800           0
     11477 TIP3     1053     TIP3     OH2      OT      -0.834000       15.9994           0
     11478 TIP3     1053     TIP3     H1       HT       0.417000       1.00800           0
     11479 TIP3     1053     TIP3     H2       HT       0.417000       1.00800           0
     11480 TIP3     1054     TIP3     OH2      OT      -0.834000       15.9994           0
     11481 TIP3     1054     TIP3     H1       HT       0.417000       1.00800           0
     11482 TIP3     1054     TIP3     H2       HT       0.417000       1.00800           0
     11483 TIP3     1055     TIP3     OH2      OT      -0.834000       15.9994           0
     11484 TIP3     1055     TIP3     H1       HT       0.417000       1.00800           0
     11485 TIP3     1055     TIP3     H2       HT       0.417000       1.00800           0
     11486 TIP3     1056     TIP3     OH2      OT      -0.834000       15.9994           0
     11487 TIP3     1056     TIP3     H1       HT       0.417000       1.00800           0
     11488 TIP3     1056     TIP3     H2       HT       0.417000       1.00800           0
     11489 TIP3     1057     TIP3     OH2      OT      -0.834000       15.9994           0
     11490 TIP3     1057     TIP3     H1       HT       0.417000       1.00800           0
     11491 TIP3     1057     TIP3     H2       HT       0.417000       1.00800           0
     11492 TIP3     1058     TIP3     OH2      OT      -0.834000       15.9994           0
     11493 TIP3     1058     TIP3     H1       HT       0.417000       1.00800           0
     11494 TIP3     1058     TIP3     H2       HT       0.417000       1.00800           0
     11495 TIP3     1059     TIP3     OH2      OT      -0.834000       15.9994           0
     11496 TIP3     1059     TIP3     H1       HT       0.417000       1.00800           0
     11497 TIP3     1059     TIP3     H2       HT       0.417000       1.00800           0
     11498 TIP3     1060     TIP3     OH2      OT      -0.834000       15.9994           0
     11499 TIP3     1060     TIP3     H1       HT       0.417000       1.00800           0
     11500 TIP3     1060     TIP3     H2       HT       0.417000       1.00800           0
     11501 TIP3     1061     TIP3     OH2      OT      -0.834000       15.9994           0
     11502 TIP3     1061     TIP3     H1       HT       0.417000       1.00800           0
     11503 TIP3     1061     TIP3     H2       HT       0.417000       1.00800           0
     11504 TIP3     1062     TIP3     OH2      OT      -0.834000       15.9994           0
     11505 TIP3     1062     TIP3     H1       HT       0.417000       1.00800           0
     11506 TIP3     1062     TIP3     H2       HT       0.417000       1.00800           0
     11507 TIP3     1063     TIP3     OH2      OT      -0.834000       15.9994           0
     11508 TIP3     1063     TIP3     H1       HT       0.417000       1.00800           0
     11509 TIP3     1063     TIP3     H2       HT       0.417000       1.00800           0
     11510 TIP3     1064     TIP3     OH2      OT      -0.834000       15.9994           0
     11511 TIP3     1064     TIP3     H1       HT       0.417000       1.00800           0
     11512 TIP3     1064     TIP3     H2       HT       0.417000       1.00800           0
     11513 TIP3     1065     TIP3     OH2      OT      -0.834000       15.9994           0
     11514 TIP3     1065     TIP3     H1       HT       0.417000       1.00800           0
     11515 TIP3     1065     TIP3     H2       HT       0.417000       1.00800           0
     11516 TIP3     1066     TIP3     OH2      OT      -0.834000       15.9994           0
     11517 TIP3     1066     TIP3     H1       HT       0.417000       1.00800           0
     11518 TIP3     1066     TIP3     H2       HT       0.417000       1.00800           0
     11519 TIP3     1067     TIP3     OH2      OT      -0.834000       15.9994           0
     11520 TIP3     1067     TIP3     H1       HT       0.417000       1.00800           0
     11521 TIP3     1067     TIP3     H2       HT       0.417000       1.00800           0
     11522 TIP3     1068     TIP3     OH2      OT      -0.834000       15.9994           0
     11523 TIP3     1068     TIP3     H1       HT       0.417000       1.00800           0
     11524 TIP3     1068     TIP3     H2       HT       0.417000       1.00800           0
     11525 TIP3     1069     TIP3     OH2      OT      -0.834000       15.9994           0
     11526 TIP3     1069     TIP3     H1       HT       0.417000       1.00800           0
     11527 TIP3     1069     TIP3     H2       HT       0.417000       1.00800           0
     11528 TIP3     1070     TIP3     OH2      OT      -0.834000       15.9994           0
     11529 TIP3     1070     TIP3     H1       HT       0.417000       1.00800           0
     11530 TIP3     1070     TIP3     H2       HT       0.417000       1.00800           0
     11531 TIP3     1071     TIP3     OH2      OT      -0.834000       15.9994           0
     11532 TIP3     1071     TIP3     H1       HT       0.417000       1.00800           0
     11533 TIP3     1071     TIP3     H2       HT       0.417000       1.00800           0
     11534 TIP3     1072     TIP3     OH2      OT      -0.834000       15.9994           0
     11535 TIP3     1072     TIP3     H1       HT       0.417000       1.00800           0
     11536 TIP3     1072     TIP3     H2       HT       0.417000       1.00800           0
     11537 TIP3     1073     TIP3     OH2      OT      -0.834000       15.9994           0
     11538 TIP3     1073     TIP3     H1       HT       0.417000       1.00800           0
     11539 TIP3     1073     TIP3     H2       HT       0.417000       1.00800           0
     11540 TIP3     1074     TIP3     OH2      OT      -0.834000       15.9994           0
     11541 TIP3     1074     TIP3     H1       HT       0.417000       1.00800           0
     11542 TIP3     1074     TIP3     H2       HT       0.417000       1.00800           0
     11543 TIP3     1075     TIP3     OH2      OT      -0.834000       15.9994           0
     11544 TIP3     1075     TIP3     H1       HT       0.417000       1.00800           0
     11545 TIP3     1075     TIP3     H2       HT       0.417000       1.00800           0
     11546 TIP3     1076     TIP3     OH2      OT      -0.834000       15.9994           0
     11547 TIP3     1076     TIP3     H1       HT       0.417000       1.00800           0
     11548 TIP3     1076     TIP3     H2       HT       0.417000       1.00800           0
     11549 TIP3     1077     TIP3     OH2      OT      -0.834000       15.9994           0
     11550 TIP3     1077     TIP3     H1       HT       0.417000       1.00800           0
     11551 TIP3     1077     TIP3     H2       HT       0.417000       1.00800           0
     11552 TIP3     1078     TIP3     OH2      OT      -0.834000       15.9994           0
     11553 TIP3     1078     TIP3     H1       HT       0.417000       1.00800           0
     11554 TIP3     1078     TIP3     H2       HT       0.417000       1.00800           0
     11555 TIP3     1079     TIP3     OH2      OT      -0.834000       15.9994           0
     11556 TIP3     1079     TIP3     H1       HT       0.417000       1.00800           0
     11557 TIP3     1079     TIP3     H2       HT       0.417000       1.00800           0
     11558 TIP3     1080     TIP3     OH2      OT      -0.834000       15.9994           0
     11559 TIP3     1080     TIP3     H1       HT       0.417000       1.00800           0
     11560 TIP3     1080     TIP3     H2       HT       0.417000       1.00800           0
     11561 TIP3     1081     TIP3     OH2      OT      -0.834000       15.9994           0
     11562 TIP3     1081     TIP3     H1       HT       0.417000       1.00800           0
     11563 TIP3     1081     TIP3     H2       HT       0.417000       1.00800           0
     11564 TIP3     1082     TIP3     OH2      OT      -0.834000       15.9994           0
     11565 TIP3     1082     TIP3     H1       HT       0.417000       1.00800           0
     11566 TIP3     1082     TIP3     H2       HT       0.417000       1.00800           0
     11567 TIP3     1083     TIP3     OH2      OT      -0.834000       15.9994           0
     11568 TIP3     1083     TIP3     H1       HT       0.417000       1.00800           0
     11569 TIP3     1083     TIP3     H2       HT       0.417000       1.00800           0
     11570 TIP3     1084     TIP3     OH2      OT      -0.834000       15.9994           0
     11571 TIP3     1084     TIP3     H1       HT       0.417000       1.00800           0
     11572 TIP3     1084     TIP3     H2       HT       0.417000       1.00800           0
     11573 TIP3     1085     TIP3     OH2      OT      -0.834000       15.9994           0
     11574 TIP3     1085     TIP3     H1       HT       0.417000       1.00800           0
     11575 TIP3     1085     TIP3     H2       HT       0.417000       1.00800           0
     11576 TIP3     1086     TIP3     OH2      OT      -0.834000       15.9994           0
     11577 TIP3     1086     TIP3     H1       HT       0.417000       1.00800           0
     11578 TIP3     1086     TIP3     H2       HT       0.417000       1.00800           0
     11579 TIP3     1087     TIP3     OH2      OT      -0.834000       15.9994           0
     11580 TIP3     1087     TIP3     H1       HT       0.417000       1.00800           0
     11581 TIP3     1087     TIP3     H2       HT       0.417000       1.00800           0
     11582 TIP3     1088     TIP3     OH2      OT      -0.834000       15.9994           0
     11583 TIP3     1088     TIP3     H1       HT       0.417000       1.00800           0
     11584 TIP3     1088     TIP3     H2       HT       0.417000       1.00800           0
     11585 TIP3     1089     TIP3     OH2      OT      -0.834000       15.9994           0
     11586 TIP3     1089     TIP3     H1       HT       0.417000       1.00800           0
     11587 TIP3     1089     TIP3     H2       HT       0.417000       1.00800           0
     11588 TIP3     1090     TIP3     OH2      OT      -0.834000       15.9994           0
     11589 TIP3     1090     TIP3     H1       HT       0.417000       1.00800           0
     11590 TIP3     1090     TIP3     H2       HT       0.417000       1.00800           0
     11591 TIP3     1091     TIP3     OH2      OT      -0.834000       15.9994           0
     11592 TIP3     1091     TIP3     H1       HT       0.417000       1.00800           0
     11593 TIP3     1091     TIP3     H2       HT       0.417000       1.00800           0
     11594 TIP3     1092     TIP3     OH2      OT      -0.834000       15.9994           0
     11595 TIP3     1092     TIP3     H1       HT       0.417000       1.00800           0
     11596 TIP3     1092     TIP3     H2       HT       0.417000       1.00800           0
     11597 TIP3     1093     TIP3     OH2      OT      -0.834000       15.9994           0
     11598 TIP3     1093     TIP3     H1       HT       0.417000       1.00800           0
     11599 TIP3     1093     TIP3     H2       HT       0.417000       1.00800           0
     11600 TIP3     1094     TIP3     OH2      OT      -0.834000       15.9994           0
     11601 TIP3     1094     TIP3     H1       HT       0.417000       1.00800           0
     11602 TIP3     1094     TIP3     H2       HT       0.417000       1.00800           0
     11603 TIP3     1095     TIP3     OH2      OT      -0.834000       15.9994           0
     11604 TIP3     1095     TIP3     H1       HT       0.417000       1.00800           0
     11605 TIP3     1095     TIP3     H2       HT       0.417000       1.00800           0
     11606 TIP3     1096     TIP3     OH2      OT      -0.834000       15.9994           0
     11607 TIP3     1096     TIP3     H1       HT       0.417000       1.00800           0
     11608 TIP3     1096     TIP3     H2       HT       0.417000       1.00800           0
     11609 TIP3     1097     TIP3     OH2      OT      -0.834000       15.9994           0
     11610 TIP3     1097     TIP3     H1       HT       0.417000       1.00800           0
     11611 TIP3     1097     TIP3     H2       HT       0.417000       1.00800           0
     11612 TIP3     1098     TIP3     OH2      OT      -0.834000       15.9994           0
     11613 TIP3     1098     TIP3     H1       HT       0.417000       1.00800           0
     11614 TIP3     1098     TIP3     H2       HT       0.417000       1.00800           0
     11615 TIP3     1099     TIP3     OH2      OT      -0.834000       15.9994           0
     11616 TIP3     1099     TIP3     H1       HT       0.417000       1.00800           0
     11617 TIP3     1099     TIP3     H2       HT       0.417000       1.00800           0
     11618 TIP3     1100     TIP3     OH2      OT      -0.834000       15.9994           0
     11619 TIP3     1100     TIP3     H1       HT       0.417000       1.00800           0
     11620 TIP3     1100     TIP3     H2       HT       0.417000       1.00800           0
     11621 TIP3     1101     TIP3     OH2      OT      -0.834000       15.9994           0
     11622 TIP3     1101     TIP3     H1       HT       0.417000       1.00800           0
     11623 TIP3     1101     TIP3     H2       HT       0.417000       1.00800           0
     11624 TIP3     1102     TIP3     OH2      OT      -0.834000       15.9994           0
     11625 TIP3     1102     TIP3     H1       HT       0.417000       1.00800           0
     11626 TIP3     1102     TIP3     H2       HT       0.417000       1.00800           0
     11627 TIP3     1103     TIP3     OH2      OT      -0.834000       15.9994           0
     11628 TIP3     1103     TIP3     H1       HT       0.417000       1.00800           0
     11629 TIP3     1103     TIP3     H2       HT       0.417000       1.00800           0
     11630 TIP3     1104     TIP3     OH2      OT      -0.834000       15.9994           0
     11631 TIP3     1104     TIP3     H1       HT       0.417000       1.00800           0
     11632 TIP3     1104     TIP3     H2       HT       0.417000       1.00800           0
     11633 TIP3     1105     TIP3     OH2      OT      -0.834000       15.9994           0
     11634 TIP3     1105     TIP3     H1       HT       0.417000       1.00800           0
     11635 TIP3     1105     TIP3     H2       HT       0.417000       1.00800           0
     11636 TIP3     1106     TIP3     OH2      OT      -0.834000       15.9994           0
     11637 TIP3     1106     TIP3     H1       HT       0.417000       1.00800           0
     11638 TIP3     1106     TIP3     H2       HT       0.417000       1.00800           0
     11639 TIP3     1107     TIP3     OH2      OT      -0.834000       15.9994           0
     11640 TIP3     1107     TIP3     H1       HT       0.417000       1.00800           0
     11641 TIP3     1107     TIP3     H2       HT       0.417000       1.00800           0
     11642 TIP3     1108     TIP3     OH2      OT      -0.834000       15.9994           0
     11643 TIP3     1108     TIP3     H1       HT       0.417000       1.00800           0
     11644 TIP3     1108     TIP3     H2       HT       0.417000       1.00800           0
     11645 TIP3     1109     TIP3     OH2      OT      -0.834000       15.9994           0
     11646 TIP3     1109     TIP3     H1       HT       0.417000       1.00800           0
     11647 TIP3     1109     TIP3     H2       HT       0.417000       1.00800           0
     11648 TIP3     1110     TIP3     OH2      OT      -0.834000       15.9994           0
     11649 TIP3     1110     TIP3     H1       HT       0.417000       1.00800           0
     11650 TIP3     1110     TIP3     H2       HT       0.417000       1.00800           0
     11651 TIP3     1111     TIP3     OH2      OT      -0.834000       15.9994           0
     11652 TIP3     1111     TIP3     H1       HT       0.417000       1.00800           0
     11653 TIP3     1111     TIP3     H2       HT       0.417000       1.00800           0
     11654 TIP3     1112     TIP3     OH2      OT      -0.834000       15.9994           0
     11655 TIP3     1112     TIP3     H1       HT       0.417000       1.00800           0
     11656 TIP3     1112     TIP3     H2       HT       0.417000       1.00800           0
     11657 TIP3     1113     TIP3     OH2      OT      -0.834000       15.9994           0
     11658 TIP3     1113     TIP3     H1       HT       0.417000       1.00800           0
     11659 TIP3     1113     TIP3     H2       HT       0.417000       1.00800           0
     11660 TIP3     1114     TIP3     OH2      OT      -0.834000       15.9994           0
     11661 TIP3     1114     TIP3     H1       HT       0.417000       1.00800           0
     11662 TIP3     1114     TIP3     H2       HT       0.417000       1.00800           0
     11663 TIP3     1115     TIP3     OH2      OT      -0.834000       15.9994           0
     11664 TIP3     1115     TIP3     H1       HT       0.417000       1.00800           0
     11665 TIP3     1115     TIP3     H2       HT       0.417000       1.00800           0
     11666 TIP3     1116     TIP3     OH2      OT      -0.834000       15.9994           0
     11667 TIP3     1116     TIP3     H1       HT       0.417000       1.00800           0
     11668 TIP3     1116     TIP3     H2       HT       0.417000       1.00800           0
     11669 TIP3     1117     TIP3     OH2      OT      -0.834000       15.9994           0
     11670 TIP3     1117     TIP3     H1       HT       0.417000       1.00800           0
     11671 TIP3     1117     TIP3     H2       HT       0.417000       1.00800           0
     11672 TIP3     1118     TIP3     OH2      OT      -0.834000       15.9994           0
     11673 TIP3     1118     TIP3     H1       HT       0.417000       1.00800           0
     11674 TIP3     1118     TIP3     H2       HT       0.417000       1.00800           0
     11675 TIP3     1119     TIP3     OH2      OT      -0.834000       15.9994           0
     11676 TIP3     1119     TIP3     H1       HT       0.417000       1.00800           0
     11677 TIP3     1119     TIP3     H2       HT       0.417000       1.00800           0
     11678 TIP3     1120     TIP3     OH2      OT      -0.834000       15.9994           0
     11679 TIP3     1120     TIP3     H1       HT       0.417000       1.00800           0
     11680 TIP3     1120     TIP3     H2       HT       0.417000       1.00800           0
     11681 TIP3     1121     TIP3     OH2      OT      -0.834000       15.9994           0
     11682 TIP3     1121     TIP3     H1       HT       0.417000       1.00800           0
     11683 TIP3     1121     TIP3     H2       HT       0.417000       1.00800           0
     11684 TIP3     1122     TIP3     OH2      OT      -0.834000       15.9994           0
     11685 TIP3     1122     TIP3     H1       HT       0.417000       1.00800           0
     11686 TIP3     1122     TIP3     H2       HT       0.417000       1.00800           0
     11687 TIP3     1123     TIP3     OH2      OT      -0.834000       15.9994           0
     11688 TIP3     1123     TIP3     H1       HT       0.417000       1.00800           0
     11689 TIP3     1123     TIP3     H2       HT       0.417000       1.00800           0
     11690 TIP3     1124     TIP3     OH2      OT      -0.834000       15.9994           0
     11691 TIP3     1124     TIP3     H1       HT       0.417000       1.00800           0
     11692 TIP3     1124     TIP3     H2       HT       0.417000       1.00800           0
     11693 TIP3     1125     TIP3     OH2      OT      -0.834000       15.9994           0
     11694 TIP3     1125     TIP3     H1       HT       0.417000       1.00800           0
     11695 TIP3     1125     TIP3     H2       HT       0.417000       1.00800           0
     11696 TIP3     1126     TIP3     OH2      OT      -0.834000       15.9994           0
     11697 TIP3     1126     TIP3     H1       HT       0.417000       1.00800           0
     11698 TIP3     1126     TIP3     H2       HT       0.417000       1.00800           0
     11699 TIP3     1127     TIP3     OH2      OT      -0.834000       15.9994           0
     11700 TIP3     1127     TIP3     H1       HT       0.417000       1.00800           0
     11701 TIP3     1127     TIP3     H2       HT       0.417000       1.00800           0
     11702 TIP3     1128     TIP3     OH2      OT      -0.834000       15.9994           0
     11703 TIP3     1128     TIP3     H1       HT       0.417000       1.00800           0
     11704 TIP3     1128     TIP3     H2       HT       0.417000       1.00800           0
     11705 TIP3     1129     TIP3     OH2      OT      -0.834000       15.9994           0
     11706 TIP3     1129     TIP3     H1       HT       0.417000       1.00800           0
     11707 TIP3     1129     TIP3     H2       HT       0.417000       1.00800           0
     11708 TIP3     1130     TIP3     OH2      OT      -0.834000       15.9994           0
     11709 TIP3     1130     TIP3     H1       HT       0.417000       1.00800           0
     11710 TIP3     1130     TIP3     H2       HT       0.417000       1.00800           0
     11711 TIP3     1131     TIP3     OH2      OT      -0.834000       15.9994           0
     11712 TIP3     1131     TIP3     H1       HT       0.417000       1.00800           0
     11713 TIP3     1131     TIP3     H2       HT       0.417000       1.00800           0
     11714 TIP3     1132     TIP3     OH2      OT      -0.834000       15.9994           0
     11715 TIP3     1132     TIP3     H1       HT       0.417000       1.00800           0
     11716 TIP3     1132     TIP3     H2       HT       0.417000       1.00800           0
     11717 TIP3     1133     TIP3     OH2      OT      -0.834000       15.9994           0
     11718 TIP3     1133     TIP3     H1       HT       0.417000       1.00800           0
     11719 TIP3     1133     TIP3     H2       HT       0.417000       1.00800           0
     11720 TIP3     1134     TIP3     OH2      OT      -0.834000       15.9994           0
     11721 TIP3     1134     TIP3     H1       HT       0.417000       1.00800           0
     11722 TIP3     1134     TIP3     H2       HT       0.417000       1.00800           0
     11723 TIP3     1135     TIP3     OH2      OT      -0.834000       15.9994           0
     11724 TIP3     1135     TIP3     H1       HT       0.417000       1.00800           0
     11725 TIP3     1135     TIP3     H2       HT       0.417000       1.00800           0
     11726 TIP3     1136     TIP3     OH2      OT      -0.834000       15.9994           0
     11727 TIP3     1136     TIP3     H1       HT       0.417000       1.00800           0
     11728 TIP3     1136     TIP3     H2       HT       0.417000       1.00800           0
     11729 TIP3     1137     TIP3     OH2      OT      -0.834000       15.9994           0
     11730 TIP3     1137     TIP3     H1       HT       0.417000       1.00800           0
     11731 TIP3     1137     TIP3     H2       HT       0.417000       1.00800           0
     11732 TIP3     1138     TIP3     OH2      OT      -0.834000       15.9994           0
     11733 TIP3     1138     TIP3     H1       HT       0.417000       1.00800           0
     11734 TIP3     1138     TIP3     H2       HT       0.417000       1.00800           0
     11735 TIP3     1139     TIP3     OH2      OT      -0.834000       15.9994           0
     11736 TIP3     1139     TIP3     H1       HT       0.417000       1.00800           0
     11737 TIP3     1139     TIP3     H2       HT       0.417000       1.00800           0
     11738 TIP3     1140     TIP3     OH2      OT      -0.834000       15.9994           0
     11739 TIP3     1140     TIP3     H1       HT       0.417000       1.00800           0
     11740 TIP3     1140     TIP3     H2       HT       0.417000       1.00800           0
     11741 TIP3     1141     TIP3     OH2      OT      -0.834000       15.9994           0
     11742 TIP3     1141     TIP3     H1       HT       0.417000       1.00800           0
     11743 TIP3     1141     TIP3     H2       HT       0.417000       1.00800           0
     11744 TIP3     1142     TIP3     OH2      OT      -0.834000       15.9994           0
     11745 TIP3     1142     TIP3     H1       HT       0.417000       1.00800           0
     11746 TIP3     1142     TIP3     H2       HT       0.417000       1.00800           0
     11747 TIP3     1143     TIP3     OH2      OT      -0.834000       15.9994           0
     11748 TIP3     1143     TIP3     H1       HT       0.417000       1.00800           0
     11749 TIP3     1143     TIP3     H2       HT       0.417000       1.00800           0
     11750 TIP3     1144     TIP3     OH2      OT      -0.834000       15.9994           0
     11751 TIP3     1144     TIP3     H1       HT       0.417000       1.00800           0
     11752 TIP3     1144     TIP3     H2       HT       0.417000       1.00800           0
     11753 TIP3     1145     TIP3     OH2      OT      -0.834000       15.9994           0
     11754 TIP3     1145     TIP3     H1       HT       0.417000       1.00800           0
     11755 TIP3     1145     TIP3     H2       HT       0.417000       1.00800           0
     11756 TIP3     1146     TIP3     OH2      OT      -0.834000       15.9994           0
     11757 TIP3     1146     TIP3     H1       HT       0.417000       1.00800           0
     11758 TIP3     1146     TIP3     H2       HT       0.417000       1.00800           0
     11759 TIP3     1147     TIP3     OH2      OT      -0.834000       15.9994           0
     11760 TIP3     1147     TIP3     H1       HT       0.417000       1.00800           0
     11761 TIP3     1147     TIP3     H2       HT       0.417000       1.00800           0
     11762 TIP3     1148     TIP3     OH2      OT      -0.834000       15.9994           0
     11763 TIP3     1148     TIP3     H1       HT       0.417000       1.00800           0
     11764 TIP3     1148     TIP3     H2       HT       0.417000       1.00800           0
     11765 TIP3     1149     TIP3     OH2      OT      -0.834000       15.9994           0
     11766 TIP3     1149     TIP3     H1       HT       0.417000       1.00800           0
     11767 TIP3     1149     TIP3     H2       HT       0.417000       1.00800           0
     11768 TIP3     1150     TIP3     OH2      OT      -0.834000       15.9994           0
     11769 TIP3     1150     TIP3     H1       HT       0.417000       1.00800           0
     11770 TIP3     1150     TIP3     H2       HT       0.417000       1.00800           0
     11771 TIP3     1151     TIP3     OH2      OT      -0.834000       15.9994           0
     11772 TIP3     1151     TIP3     H1       HT       0.417000       1.00800           0
     11773 TIP3     1151     TIP3     H2       HT       0.417000       1.00800           0
     11774 TIP3     1152     TIP3     OH2      OT      -0.834000       15.9994           0
     11775 TIP3     1152     TIP3     H1       HT       0.417000       1.00800           0
     11776 TIP3     1152     TIP3     H2       HT       0.417000       1.00800           0
     11777 TIP3     1153     TIP3     OH2      OT      -0.834000       15.9994           0
     11778 TIP3     1153     TIP3     H1       HT       0.417000       1.00800           0
     11779 TIP3     1153     TIP3     H2       HT       0.417000       1.00800           0
     11780 TIP3     1154     TIP3     OH2      OT      -0.834000       15.9994           0
     11781 TIP3     1154     TIP3     H1       HT       0.417000       1.00800           0
     11782 TIP3     1154     TIP3     H2       HT       0.417000       1.00800           0
     11783 TIP3     1155     TIP3     OH2      OT      -0.834000       15.9994           0
     11784 TIP3     1155     TIP3     H1       HT       0.417000       1.00800           0
     11785 TIP3     1155     TIP3     H2       HT       0.417000       1.00800           0
     11786 TIP3     1156     TIP3     OH2      OT      -0.834000       15.9994           0
     11787 TIP3     1156     TIP3     H1       HT       0.417000       1.00800           0
     11788 TIP3     1156     TIP3     H2       HT       0.417000       1.00800           0
     11789 TIP3     1157     TIP3     OH2      OT      -0.834000       15.9994           0
     11790 TIP3     1157     TIP3     H1       HT       0.417000       1.00800           0
     11791 TIP3     1157     TIP3     H2       HT       0.417000       1.00800           0
     11792 TIP3     1158     TIP3     OH2      OT      -0.834000       15.9994           0
     11793 TIP3     1158     TIP3     H1       HT       0.417000       1.00800           0
     11794 TIP3     1158     TIP3     H2       HT       0.417000       1.00800           0
     11795 TIP3     1159     TIP3     OH2      OT      -0.834000       15.9994           0
     11796 TIP3     1159     TIP3     H1       HT       0.417000       1.00800           0
     11797 TIP3     1159     TIP3     H2       HT       0.417000       1.00800           0
     11798 TIP3     1160     TIP3     OH2      OT      -0.834000       15.9994           0
     11799 TIP3     1160     TIP3     H1       HT       0.417000       1.00800           0
     11800 TIP3     1160     TIP3     H2       HT       0.417000       1.00800           0
     11801 TIP3     1161     TIP3     OH2      OT      -0.834000       15.9994           0
     11802 TIP3     1161     TIP3     H1       HT       0.417000       1.00800           0
     11803 TIP3     1161     TIP3     H2       HT       0.417000       1.00800           0
     11804 TIP3     1162     TIP3     OH2      OT      -0.834000       15.9994           0
     11805 TIP3     1162     TIP3     H1       HT       0.417000       1.00800           0
     11806 TIP3     1162     TIP3     H2       HT       0.417000       1.00800           0
     11807 TIP3     1163     TIP3     OH2      OT      -0.834000       15.9994           0
     11808 TIP3     1163     TIP3     H1       HT       0.417000       1.00800           0
     11809 TIP3     1163     TIP3     H2       HT       0.417000       1.00800           0
     11810 TIP3     1164     TIP3     OH2      OT      -0.834000       15.9994           0
     11811 TIP3     1164     TIP3     H1       HT       0.417000       1.00800           0
     11812 TIP3     1164     TIP3     H2       HT       0.417000       1.00800           0
     11813 TIP3     1165     TIP3     OH2      OT      -0.834000       15.9994           0
     11814 TIP3     1165     TIP3     H1       HT       0.417000       1.00800           0
     11815 TIP3     1165     TIP3     H2       HT       0.417000       1.00800           0
     11816 TIP3     1166     TIP3     OH2      OT      -0.834000       15.9994           0
     11817 TIP3     1166     TIP3     H1       HT       0.417000       1.00800           0
     11818 TIP3     1166     TIP3     H2       HT       0.417000       1.00800           0
     11819 TIP3     1167     TIP3     OH2      OT      -0.834000       15.9994           0
     11820 TIP3     1167     TIP3     H1       HT       0.417000       1.00800           0
     11821 TIP3     1167     TIP3     H2       HT       0.417000       1.00800           0
     11822 TIP3     1168     TIP3     OH2      OT      -0.834000       15.9994           0
     11823 TIP3     1168     TIP3     H1       HT       0.417000       1.00800           0
     11824 TIP3     1168     TIP3     H2       HT       0.417000       1.00800           0
     11825 TIP3     1169     TIP3     OH2      OT      -0.834000       15.9994           0
     11826 TIP3     1169     TIP3     H1       HT       0.417000       1.00800           0
     11827 TIP3     1169     TIP3     H2       HT       0.417000       1.00800           0
     11828 TIP3     1170     TIP3     OH2      OT      -0.834000       15.9994           0
     11829 TIP3     1170     TIP3     H1       HT       0.417000       1.00800           0
     11830 TIP3     1170     TIP3     H2       HT       0.417000       1.00800           0
     11831 TIP3     1171     TIP3     OH2      OT      -0.834000       15.9994           0
     11832 TIP3     1171     TIP3     H1       HT       0.417000       1.00800           0
     11833 TIP3     1171     TIP3     H2       HT       0.417000       1.00800           0
     11834 TIP3     1172     TIP3     OH2      OT      -0.834000       15.9994           0
     11835 TIP3     1172     TIP3     H1       HT       0.417000       1.00800           0
     11836 TIP3     1172     TIP3     H2       HT       0.417000       1.00800           0
     11837 TIP3     1173     TIP3     OH2      OT      -0.834000       15.9994           0
     11838 TIP3     1173     TIP3     H1       HT       0.417000       1.00800           0
     11839 TIP3     1173     TIP3     H2       HT       0.417000       1.00800           0
     11840 TIP3     1174     TIP3     OH2      OT      -0.834000       15.9994           0
     11841 TIP3     1174     TIP3     H1       HT       0.417000       1.00800           0
     11842 TIP3     1174     TIP3     H2       HT       0.417000       1.00800           0
     11843 TIP3     1175     TIP3     OH2      OT      -0.834000       15.9994           0
     11844 TIP3     1175     TIP3     H1       HT       0.417000       1.00800           0
     11845 TIP3     1175     TIP3     H2       HT       0.417000       1.00800           0
     11846 TIP3     1176     TIP3     OH2      OT      -0.834000       15.9994           0
     11847 TIP3     1176     TIP3     H1       HT       0.417000       1.00800           0
     11848 TIP3     1176     TIP3     H2       HT       0.417000       1.00800           0
     11849 TIP3     1177     TIP3     OH2      OT      -0.834000       15.9994           0
     11850 TIP3     1177     TIP3     H1       HT       0.417000       1.00800           0
     11851 TIP3     1177     TIP3     H2       HT       0.417000       1.00800           0
     11852 TIP3     1178     TIP3     OH2      OT      -0.834000       15.9994           0
     11853 TIP3     1178     TIP3     H1       HT       0.417000       1.00800           0
     11854 TIP3     1178     TIP3     H2       HT       0.417000       1.00800           0
     11855 TIP3     1179     TIP3     OH2      OT      -0.834000       15.9994           0
     11856 TIP3     1179     TIP3     H1       HT       0.417000       1.00800           0
     11857 TIP3     1179     TIP3     H2       HT       0.417000       1.00800           0
     11858 TIP3     1180     TIP3     OH2      OT      -0.834000       15.9994           0
     11859 TIP3     1180     TIP3     H1       HT       0.417000       1.00800           0
     11860 TIP3     1180     TIP3     H2       HT       0.417000       1.00800           0
     11861 TIP3     1181     TIP3     OH2      OT      -0.834000       15.9994           0
     11862 TIP3     1181     TIP3     H1       HT       0.417000       1.00800           0
     11863 TIP3     1181     TIP3     H2       HT       0.417000       1.00800           0
     11864 TIP3     1182     TIP3     OH2      OT      -0.834000       15.9994           0
     11865 TIP3     1182     TIP3     H1       HT       0.417000       1.00800           0
     11866 TIP3     1182     TIP3     H2       HT       0.417000       1.00800           0
     11867 TIP3     1183     TIP3     OH2      OT      -0.834000       15.9994           0
     11868 TIP3     1183     TIP3     H1       HT       0.417000       1.00800           0
     11869 TIP3     1183     TIP3     H2       HT       0.417000       1.00800           0
     11870 TIP3     1184     TIP3     OH2      OT      -0.834000       15.9994           0
     11871 TIP3     1184     TIP3     H1       HT       0.417000       1.00800           0
     11872 TIP3     1184     TIP3     H2       HT       0.417000       1.00800           0
     11873 TIP3     1185     TIP3     OH2      OT      -0.834000       15.9994           0
     11874 TIP3     1185     TIP3     H1       HT       0.417000       1.00800           0
     11875 TIP3     1185     TIP3     H2       HT       0.417000       1.00800           0
     11876 TIP3     1186     TIP3     OH2      OT      -0.834000       15.9994           0
     11877 TIP3     1186     TIP3     H1       HT       0.417000       1.00800           0
     11878 TIP3     1186     TIP3     H2       HT       0.417000       1.00800           0
     11879 TIP3     1187     TIP3     OH2      OT      -0.834000       15.9994           0
     11880 TIP3     1187     TIP3     H1       HT       0.417000       1.00800           0
     11881 TIP3     1187     TIP3     H2       HT       0.417000       1.00800           0
     11882 TIP3     1188     TIP3     OH2      OT      -0.834000       15.9994           0
     11883 TIP3     1188     TIP3     H1       HT       0.417000       1.00800           0
     11884 TIP3     1188     TIP3     H2       HT       0.417000       1.00800           0
     11885 TIP3     1189     TIP3     OH2      OT      -0.834000       15.9994           0
     11886 TIP3     1189     TIP3     H1       HT       0.417000       1.00800           0
     11887 TIP3     1189     TIP3     H2       HT       0.417000       1.00800           0
     11888 TIP3     1190     TIP3     OH2      OT      -0.834000       15.9994           0
     11889 TIP3     1190     TIP3     H1       HT       0.417000       1.00800           0
     11890 TIP3     1190     TIP3     H2       HT       0.417000       1.00800           0
     11891 TIP3     1191     TIP3     OH2      OT      -0.834000       15.9994           0
     11892 TIP3     1191     TIP3     H1       HT       0.417000       1.00800           0
     11893 TIP3     1191     TIP3     H2       HT       0.417000       1.00800           0
     11894 TIP3     1192     TIP3     OH2      OT      -0.834000       15.9994           0
     11895 TIP3     1192     TIP3     H1       HT       0.417000       1.00800           0
     11896 TIP3     1192     TIP3     H2       HT       0.417000       1.00800           0
     11897 TIP3     1193     TIP3     OH2      OT      -0.834000       15.9994           0
     11898 TIP3     1193     TIP3     H1       HT       0.417000       1.00800           0
     11899 TIP3     1193     TIP3     H2       HT       0.417000       1.00800           0
     11900 TIP3     1194     TIP3     OH2      OT      -0.834000       15.9994           0
     11901 TIP3     1194     TIP3     H1       HT       0.417000       1.00800           0
     11902 TIP3     1194     TIP3     H2       HT       0.417000       1.00800           0
     11903 TIP3     1195     TIP3     OH2      OT      -0.834000       15.9994           0
     11904 TIP3     1195     TIP3     H1       HT       0.417000       1.00800           0
     11905 TIP3     1195     TIP3     H2       HT       0.417000       1.00800           0
     11906 TIP3     1196     TIP3     OH2      OT      -0.834000       15.9994           0
     11907 TIP3     1196     TIP3     H1       HT       0.417000       1.00800           0
     11908 TIP3     1196     TIP3     H2       HT       0.417000       1.00800           0
     11909 TIP3     1197     TIP3     OH2      OT      -0.834000       15.9994           0
     11910 TIP3     1197     TIP3     H1       HT       0.417000       1.00800           0
     11911 TIP3     1197     TIP3     H2       HT       0.417000       1.00800           0
     11912 TIP3     1198     TIP3     OH2      OT      -0.834000       15.9994           0
     11913 TIP3     1198     TIP3     H1       HT       0.417000       1.00800           0
     11914 TIP3     1198     TIP3     H2       HT       0.417000       1.00800           0
     11915 TIP3     1199     TIP3     OH2      OT      -0.834000       15.9994           0
     11916 TIP3     1199     TIP3     H1       HT       0.417000       1.00800           0
     11917 TIP3     1199     TIP3     H2       HT       0.417000       1.00800           0
     11918 TIP3     1200     TIP3     OH2      OT      -0.834000       15.9994           0
     11919 TIP3     1200     TIP3     H1       HT       0.417000       1.00800           0
     11920 TIP3     1200     TIP3     H2       HT       0.417000       1.00800           0
     11921 TIP3     1201     TIP3     OH2      OT      -0.834000       15.9994           0
     11922 TIP3     1201     TIP3     H1       HT       0.417000       1.00800           0
     11923 TIP3     1201     TIP3     H2       HT       0.417000       1.00800           0
     11924 TIP3     1202     TIP3     OH2      OT      -0.834000       15.9994           0
     11925 TIP3     1202     TIP3     H1       HT       0.417000       1.00800           0
     11926 TIP3     1202     TIP3     H2       HT       0.417000       1.00800           0
     11927 TIP3     1203     TIP3     OH2      OT      -0.834000       15.9994           0
     11928 TIP3     1203     TIP3     H1       HT       0.417000       1.00800           0
     11929 TIP3     1203     TIP3     H2       HT       0.417000       1.00800           0
     11930 TIP3     1204     TIP3     OH2      OT      -0.834000       15.9994           0
     11931 TIP3     1204     TIP3     H1       HT       0.417000       1.00800           0
     11932 TIP3     1204     TIP3     H2       HT       0.417000       1.00800           0
     11933 TIP3     1205     TIP3     OH2      OT      -0.834000       15.9994           0
     11934 TIP3     1205     TIP3     H1       HT       0.417000       1.00800           0
     11935 TIP3     1205     TIP3     H2       HT       0.417000       1.00800           0
     11936 TIP3     1206     TIP3     OH2      OT      -0.834000       15.9994           0
     11937 TIP3     1206     TIP3     H1       HT       0.417000       1.00800           0
     11938 TIP3     1206     TIP3     H2       HT       0.417000       1.00800           0
     11939 TIP3     1207     TIP3     OH2      OT      -0.834000       15.9994           0
     11940 TIP3     1207     TIP3     H1       HT       0.417000       1.00800           0
     11941 TIP3     1207     TIP3     H2       HT       0.417000       1.00800           0
     11942 TIP3     1208     TIP3     OH2      OT      -0.834000       15.9994           0
     11943 TIP3     1208     TIP3     H1       HT       0.417000       1.00800           0
     11944 TIP3     1208     TIP3     H2       HT       0.417000       1.00800           0
     11945 TIP3     1209     TIP3     OH2      OT      -0.834000       15.9994           0
     11946 TIP3     1209     TIP3     H1       HT       0.417000       1.00800           0
     11947 TIP3     1209     TIP3     H2       HT       0.417000       1.00800           0
     11948 TIP3     1210     TIP3     OH2      OT      -0.834000       15.9994           0
     11949 TIP3     1210     TIP3     H1       HT       0.417000       1.00800           0
     11950 TIP3     1210     TIP3     H2       HT       0.417000       1.00800           0
     11951 TIP3     1211     TIP3     OH2      OT      -0.834000       15.9994           0
     11952 TIP3     1211     TIP3     H1       HT       0.417000       1.00800           0
     11953 TIP3     1211     TIP3     H2       HT       0.417000       1.00800           0
     11954 TIP3     1212     TIP3     OH2      OT      -0.834000       15.9994           0
     11955 TIP3     1212     TIP3     H1       HT       0.417000       1.00800           0
     11956 TIP3     1212     TIP3     H2       HT       0.417000       1.00800           0
     11957 TIP3     1213     TIP3     OH2      OT      -0.834000       15.9994           0
     11958 TIP3     1213     TIP3     H1       HT       0.417000       1.00800           0
     11959 TIP3     1213     TIP3     H2       HT       0.417000       1.00800           0
     11960 TIP3     1214     TIP3     OH2      OT      -0.834000       15.9994           0
     11961 TIP3     1214     TIP3     H1       HT       0.417000       1.00800           0
     11962 TIP3     1214     TIP3     H2       HT       0.417000       1.00800           0
     11963 TIP3     1215     TIP3     OH2      OT      -0.834000       15.9994           0
     11964 TIP3     1215     TIP3     H1       HT       0.417000       1.00800           0
     11965 TIP3     1215     TIP3     H2       HT       0.417000       1.00800           0
     11966 TIP3     1216     TIP3     OH2      OT      -0.834000       15.9994           0
     11967 TIP3     1216     TIP3     H1       HT       0.417000       1.00800           0
     11968 TIP3     1216     TIP3     H2       HT       0.417000       1.00800           0
     11969 TIP3     1217     TIP3     OH2      OT      -0.834000       15.9994           0
     11970 TIP3     1217     TIP3     H1       HT       0.417000       1.00800           0
     11971 TIP3     1217     TIP3     H2       HT       0.417000       1.00800           0
     11972 TIP3     1218     TIP3     OH2      OT      -0.834000       15.9994           0
     11973 TIP3     1218     TIP3     H1       HT       0.417000       1.00800           0
     11974 TIP3     1218     TIP3     H2       HT       0.417000       1.00800           0
     11975 TIP3     1219     TIP3     OH2      OT      -0.834000       15.9994           0
     11976 TIP3     1219     TIP3     H1       HT       0.417000       1.00800           0
     11977 TIP3     1219     TIP3     H2       HT       0.417000       1.00800           0
     11978 TIP3     1220     TIP3     OH2      OT      -0.834000       15.9994           0
     11979 TIP3     1220     TIP3     H1       HT       0.417000       1.00800           0
     11980 TIP3     1220     TIP3     H2       HT       0.417000       1.00800           0
     11981 TIP3     1221     TIP3     OH2      OT      -0.834000       15.9994           0
     11982 TIP3     1221     TIP3     H1       HT       0.417000       1.00800           0
     11983 TIP3     1221     TIP3     H2       HT       0.417000       1.00800           0
     11984 TIP3     1222     TIP3     OH2      OT      -0.834000       15.9994           0
     11985 TIP3     1222     TIP3     H1       HT       0.417000       1.00800           0
     11986 TIP3     1222     TIP3     H2       HT       0.417000       1.00800           0
     11987 TIP3     1223     TIP3     OH2      OT      -0.834000       15.9994           0
     11988 TIP3     1223     TIP3     H1       HT       0.417000       1.00800           0
     11989 TIP3     1223     TIP3     H2       HT       0.417000       1.00800           0
     11990 TIP3     1224     TIP3     OH2      OT      -0.834000       15.9994           0
     11991 TIP3     1224     TIP3     H1       HT       0.417000       1.00800           0
     11992 TIP3     1224     TIP3     H2       HT       0.417000       1.00800           0
     11993 TIP3     1225     TIP3     OH2      OT      -0.834000       15.9994           0
     11994 TIP3     1225     TIP3     H1       HT       0.417000       1.00800           0
     11995 TIP3     1225     TIP3     H2       HT       0.417000       1.00800           0
     11996 TIP3     1226     TIP3     OH2      OT      -0.834000       15.9994           0
     11997 TIP3     1226     TIP3     H1       HT       0.417000       1.00800           0
     11998 TIP3     1226     TIP3     H2       HT       0.417000       1.00800           0
     11999 TIP3     1227     TIP3     OH2      OT      -0.834000       15.9994           0
     12000 TIP3     1227     TIP3     H1       HT       0.417000       1.00800           0
     12001 TIP3     1227     TIP3     H2       HT       0.417000       1.00800           0
     12002 TIP3     1228     TIP3     OH2      OT      -0.834000       15.9994           0
     12003 TIP3     1228     TIP3     H1       HT       0.417000       1.00800           0
     12004 TIP3     1228     TIP3     H2       HT       0.417000       1.00800           0
     12005 TIP3     1229     TIP3     OH2      OT      -0.834000       15.9994           0
     12006 TIP3     1229     TIP3     H1       HT       0.417000       1.00800           0
     12007 TIP3     1229     TIP3     H2       HT       0.417000       1.00800           0
     12008 TIP3     1230     TIP3     OH2      OT      -0.834000       15.9994           0
     12009 TIP3     1230     TIP3     H1       HT       0.417000       1.00800           0
     12010 TIP3     1230     TIP3     H2       HT       0.417000       1.00800           0
     12011 TIP3     1231     TIP3     OH2      OT      -0.834000       15.9994           0
     12012 TIP3     1231     TIP3     H1       HT       0.417000       1.00800           0
     12013 TIP3     1231     TIP3     H2       HT       0.417000       1.00800           0
     12014 TIP3     1232     TIP3     OH2      OT      -0.834000       15.9994           0
     12015 TIP3     1232     TIP3     H1       HT       0.417000       1.00800           0
     12016 TIP3     1232     TIP3     H2       HT       0.417000       1.00800           0
     12017 TIP3     1233     TIP3     OH2      OT      -0.834000       15.9994           0
     12018 TIP3     1233     TIP3     H1       HT       0.417000       1.00800           0
     12019 TIP3     1233     TIP3     H2       HT       0.417000       1.00800           0
     12020 TIP3     1234     TIP3     OH2      OT      -0.834000       15.9994           0
     12021 TIP3     1234     TIP3     H1       HT       0.417000       1.00800           0
     12022 TIP3     1234     TIP3     H2       HT       0.417000       1.00800           0
     12023 TIP3     1235     TIP3     OH2      OT      -0.834000       15.9994           0
     12024 TIP3     1235     TIP3     H1       HT       0.417000       1.00800           0
     12025 TIP3     1235     TIP3     H2       HT       0.417000       1.00800           0
     12026 TIP3     1236     TIP3     OH2      OT      -0.834000       15.9994           0
     12027 TIP3     1236     TIP3     H1       HT       0.417000       1.00800           0
     12028 TIP3     1236     TIP3     H2       HT       0.417000       1.00800           0
     12029 TIP3     1237     TIP3     OH2      OT      -0.834000       15.9994           0
     12030 TIP3     1237     TIP3     H1       HT       0.417000       1.00800           0
     12031 TIP3     1237     TIP3     H2       HT       0.417000       1.00800           0
     12032 TIP3     1238     TIP3     OH2      OT      -0.834000       15.9994           0
     12033 TIP3     1238     TIP3     H1       HT       0.417000       1.00800           0
     12034 TIP3     1238     TIP3     H2       HT       0.417000       1.00800           0
     12035 TIP3     1239     TIP3     OH2      OT      -0.834000       15.9994           0
     12036 TIP3     1239     TIP3     H1       HT       0.417000       1.00800           0
     12037 TIP3     1239     TIP3     H2       HT       0.417000       1.00800           0
     12038 TIP3     1240     TIP3     OH2      OT      -0.834000       15.9994           0
     12039 TIP3     1240     TIP3     H1       HT       0.417000       1.00800           0
     12040 TIP3     1240     TIP3     H2       HT       0.417000       1.00800           0
     12041 TIP3     1241     TIP3     OH2      OT      -0.834000       15.9994           0
     12042 TIP3     1241     TIP3     H1       HT       0.417000       1.00800           0
     12043 TIP3     1241     TIP3     H2       HT       0.417000       1.00800           0
     12044 TIP3     1242     TIP3     OH2      OT      -0.834000       15.9994           0
     12045 TIP3     1242     TIP3     H1       HT       0.417000       1.00800           0
     12046 TIP3     1242     TIP3     H2       HT       0.417000       1.00800           0
     12047 TIP3     1243     TIP3     OH2      OT      -0.834000       15.9994           0
     12048 TIP3     1243     TIP3     H1       HT       0.417000       1.00800           0
     12049 TIP3     1243     TIP3     H2       HT       0.417000       1.00800           0
     12050 TIP3     1244     TIP3     OH2      OT      -0.834000       15.9994           0
     12051 TIP3     1244     TIP3     H1       HT       0.417000       1.00800           0
     12052 TIP3     1244     TIP3     H2       HT       0.417000       1.00800           0
     12053 TIP3     1245     TIP3     OH2      OT      -0.834000       15.9994           0
     12054 TIP3     1245     TIP3     H1       HT       0.417000       1.00800           0
     12055 TIP3     1245     TIP3     H2       HT       0.417000       1.00800           0
     12056 TIP3     1246     TIP3     OH2      OT      -0.834000       15.9994           0
     12057 TIP3     1246     TIP3     H1       HT       0.417000       1.00800           0
     12058 TIP3     1246     TIP3     H2       HT       0.417000       1.00800           0
     12059 TIP3     1247     TIP3     OH2      OT      -0.834000       15.9994           0
     12060 TIP3     1247     TIP3     H1       HT       0.417000       1.00800           0
     12061 TIP3     1247     TIP3     H2       HT       0.417000       1.00800           0
     12062 TIP3     1248     TIP3     OH2      OT      -0.834000       15.9994           0
     12063 TIP3     1248     TIP3     H1       HT       0.417000       1.00800           0
     12064 TIP3     1248     TIP3     H2       HT       0.417000       1.00800           0
     12065 TIP3     1249     TIP3     OH2      OT      -0.834000       15.9994           0
     12066 TIP3     1249     TIP3     H1       HT       0.417000       1.00800           0
     12067 TIP3     1249     TIP3     H2       HT       0.417000       1.00800           0
     12068 TIP3     1250     TIP3     OH2      OT      -0.834000       15.9994           0
     12069 TIP3     1250     TIP3     H1       HT       0.417000       1.00800           0
     12070 TIP3     1250     TIP3     H2       HT       0.417000       1.00800           0
     12071 TIP3     1251     TIP3     OH2      OT      -0.834000       15.9994           0
     12072 TIP3     1251     TIP3     H1       HT       0.417000       1.00800           0
     12073 TIP3     1251     TIP3     H2       HT       0.417000       1.00800           0
     12074 TIP3     1252     TIP3     OH2      OT      -0.834000       15.9994           0
     12075 TIP3     1252     TIP3     H1       HT       0.417000       1.00800           0
     12076 TIP3     1252     TIP3     H2       HT       0.417000       1.00800           0
     12077 TIP3     1253     TIP3     OH2      OT      -0.834000       15.9994           0
     12078 TIP3     1253     TIP3     H1       HT       0.417000       1.00800           0
     12079 TIP3     1253     TIP3     H2       HT       0.417000       1.00800           0
     12080 TIP3     1254     TIP3     OH2      OT      -0.834000       15.9994           0
     12081 TIP3     1254     TIP3     H1       HT       0.417000       1.00800           0
     12082 TIP3     1254     TIP3     H2       HT       0.417000       1.00800           0
     12083 TIP3     1255     TIP3     OH2      OT      -0.834000       15.9994           0
     12084 TIP3     1255     TIP3     H1       HT       0.417000       1.00800           0
     12085 TIP3     1255     TIP3     H2       HT       0.417000       1.00800           0
     12086 TIP3     1256     TIP3     OH2      OT      -0.834000       15.9994           0
     12087 TIP3     1256     TIP3     H1       HT       0.417000       1.00800           0
     12088 TIP3     1256     TIP3     H2       HT       0.417000       1.00800           0
     12089 TIP3     1257     TIP3     OH2      OT      -0.834000       15.9994           0
     12090 TIP3     1257     TIP3     H1       HT       0.417000       1.00800           0
     12091 TIP3     1257     TIP3     H2       HT       0.417000       1.00800           0
     12092 TIP3     1258     TIP3     OH2      OT      -0.834000       15.9994           0
     12093 TIP3     1258     TIP3     H1       HT       0.417000       1.00800           0
     12094 TIP3     1258     TIP3     H2       HT       0.417000       1.00800           0
     12095 TIP3     1259     TIP3     OH2      OT      -0.834000       15.9994           0
     12096 TIP3     1259     TIP3     H1       HT       0.417000       1.00800           0
     12097 TIP3     1259     TIP3     H2       HT       0.417000       1.00800           0
     12098 TIP3     1260     TIP3     OH2      OT      -0.834000       15.9994           0
     12099 TIP3     1260     TIP3     H1       HT       0.417000       1.00800           0
     12100 TIP3     1260     TIP3     H2       HT       0.417000       1.00800           0
     12101 TIP3     1261     TIP3     OH2      OT      -0.834000       15.9994           0
     12102 TIP3     1261     TIP3     H1       HT       0.417000       1.00800           0
     12103 TIP3     1261     TIP3     H2       HT       0.417000       1.00800           0
     12104 TIP3     1262     TIP3     OH2      OT      -0.834000       15.9994           0
     12105 TIP3     1262     TIP3     H1       HT       0.417000       1.00800           0
     12106 TIP3     1262     TIP3     H2       HT       0.417000       1.00800           0
     12107 TIP3     1263     TIP3     OH2      OT      -0.834000       15.9994           0
     12108 TIP3     1263     TIP3     H1       HT       0.417000       1.00800           0
     12109 TIP3     1263     TIP3     H2       HT       0.417000       1.00800           0
     12110 TIP3     1264     TIP3     OH2      OT      -0.834000       15.9994           0
     12111 TIP3     1264     TIP3     H1       HT       0.417000       1.00800           0
     12112 TIP3     1264     TIP3     H2       HT       0.417000       1.00800           0
     12113 TIP3     1265     TIP3     OH2      OT      -0.834000       15.9994           0
     12114 TIP3     1265     TIP3     H1       HT       0.417000       1.00800           0
     12115 TIP3     1265     TIP3     H2       HT       0.417000       1.00800           0
     12116 TIP3     1266     TIP3     OH2      OT      -0.834000       15.9994           0
     12117 TIP3     1266     TIP3     H1       HT       0.417000       1.00800           0
     12118 TIP3     1266     TIP3     H2       HT       0.417000       1.00800           0
     12119 TIP3     1267     TIP3     OH2      OT      -0.834000       15.9994           0
     12120 TIP3     1267     TIP3     H1       HT       0.417000       1.00800           0
     12121 TIP3     1267     TIP3     H2       HT       0.417000       1.00800           0
     12122 TIP3     1268     TIP3     OH2      OT      -0.834000       15.9994           0
     12123 TIP3     1268     TIP3     H1       HT       0.417000       1.00800           0
     12124 TIP3     1268     TIP3     H2       HT       0.417000       1.00800           0
     12125 TIP3     1269     TIP3     OH2      OT      -0.834000       15.9994           0
     12126 TIP3     1269     TIP3     H1       HT       0.417000       1.00800           0
     12127 TIP3     1269     TIP3     H2       HT       0.417000       1.00800           0
     12128 TIP3     1270     TIP3     OH2      OT      -0.834000       15.9994           0
     12129 TIP3     1270     TIP3     H1       HT       0.417000       1.00800           0
     12130 TIP3     1270     TIP3     H2       HT       0.417000       1.00800           0
     12131 TIP3     1271     TIP3     OH2      OT      -0.834000       15.9994           0
     12132 TIP3     1271     TIP3     H1       HT       0.417000       1.00800           0
     12133 TIP3     1271     TIP3     H2       HT       0.417000       1.00800           0
     12134 TIP3     1272     TIP3     OH2      OT      -0.834000       15.9994           0
     12135 TIP3     1272     TIP3     H1       HT       0.417000       1.00800           0
     12136 TIP3     1272     TIP3     H2       HT       0.417000       1.00800           0
     12137 TIP3     1273     TIP3     OH2      OT      -0.834000       15.9994           0
     12138 TIP3     1273     TIP3     H1       HT       0.417000       1.00800           0
     12139 TIP3     1273     TIP3     H2       HT       0.417000       1.00800           0
     12140 TIP3     1274     TIP3     OH2      OT      -0.834000       15.9994           0
     12141 TIP3     1274     TIP3     H1       HT       0.417000       1.00800           0
     12142 TIP3     1274     TIP3     H2       HT       0.417000       1.00800           0
     12143 TIP3     1275     TIP3     OH2      OT      -0.834000       15.9994           0
     12144 TIP3     1275     TIP3     H1       HT       0.417000       1.00800           0
     12145 TIP3     1275     TIP3     H2       HT       0.417000       1.00800           0
     12146 TIP3     1276     TIP3     OH2      OT      -0.834000       15.9994           0
     12147 TIP3     1276     TIP3     H1       HT       0.417000       1.00800           0
     12148 TIP3     1276     TIP3     H2       HT       0.417000       1.00800           0
     12149 TIP3     1277     TIP3     OH2      OT      -0.834000       15.9994           0
     12150 TIP3     1277     TIP3     H1       HT       0.417000       1.00800           0
     12151 TIP3     1277     TIP3     H2       HT       0.417000       1.00800           0
     12152 TIP3     1278     TIP3     OH2      OT      -0.834000       15.9994           0
     12153 TIP3     1278     TIP3     H1       HT       0.417000       1.00800           0
     12154 TIP3     1278     TIP3     H2       HT       0.417000       1.00800           0
     12155 TIP3     1279     TIP3     OH2      OT      -0.834000       15.9994           0
     12156 TIP3     1279     TIP3     H1       HT       0.417000       1.00800           0
     12157 TIP3     1279     TIP3     H2       HT       0.417000       1.00800           0
     12158 TIP3     1280     TIP3     OH2      OT      -0.834000       15.9994           0
     12159 TIP3     1280     TIP3     H1       HT       0.417000       1.00800           0
     12160 TIP3     1280     TIP3     H2       HT       0.417000       1.00800           0
     12161 TIP3     1281     TIP3     OH2      OT      -0.834000       15.9994           0
     12162 TIP3     1281     TIP3     H1       HT       0.417000       1.00800           0
     12163 TIP3     1281     TIP3     H2       HT       0.417000       1.00800           0
     12164 TIP3     1282     TIP3     OH2      OT      -0.834000       15.9994           0
     12165 TIP3     1282     TIP3     H1       HT       0.417000       1.00800           0
     12166 TIP3     1282     TIP3     H2       HT       0.417000       1.00800           0
     12167 TIP3     1283     TIP3     OH2      OT      -0.834000       15.9994           0
     12168 TIP3     1283     TIP3     H1       HT       0.417000       1.00800           0
     12169 TIP3     1283     TIP3     H2       HT       0.417000       1.00800           0
     12170 TIP3     1284     TIP3     OH2      OT      -0.834000       15.9994           0
     12171 TIP3     1284     TIP3     H1       HT       0.417000       1.00800           0
     12172 TIP3     1284     TIP3     H2       HT       0.417000       1.00800           0
     12173 TIP3     1285     TIP3     OH2      OT      -0.834000       15.9994           0
     12174 TIP3     1285     TIP3     H1       HT       0.417000       1.00800           0
     12175 TIP3     1285     TIP3     H2       HT       0.417000       1.00800           0
     12176 TIP3     1286     TIP3     OH2      OT      -0.834000       15.9994           0
     12177 TIP3     1286     TIP3     H1       HT       0.417000       1.00800           0
     12178 TIP3     1286     TIP3     H2       HT       0.417000       1.00800           0
     12179 TIP3     1287     TIP3     OH2      OT      -0.834000       15.9994           0
     12180 TIP3     1287     TIP3     H1       HT       0.417000       1.00800           0
     12181 TIP3     1287     TIP3     H2       HT       0.417000       1.00800           0
     12182 TIP3     1288     TIP3     OH2      OT      -0.834000       15.9994           0
     12183 TIP3     1288     TIP3     H1       HT       0.417000       1.00800           0
     12184 TIP3     1288     TIP3     H2       HT       0.417000       1.00800           0
     12185 TIP3     1289     TIP3     OH2      OT      -0.834000       15.9994           0
     12186 TIP3     1289     TIP3     H1       HT       0.417000       1.00800           0
     12187 TIP3     1289     TIP3     H2       HT       0.417000       1.00800           0
     12188 TIP3     1290     TIP3     OH2      OT      -0.834000       15.9994           0
     12189 TIP3     1290     TIP3     H1       HT       0.417000       1.00800           0
     12190 TIP3     1290     TIP3     H2       HT       0.417000       1.00800           0
     12191 TIP3     1291     TIP3     OH2      OT      -0.834000       15.9994           0
     12192 TIP3     1291     TIP3     H1       HT       0.417000       1.00800           0
     12193 TIP3     1291     TIP3     H2       HT       0.417000       1.00800           0
     12194 TIP3     1292     TIP3     OH2      OT      -0.834000       15.9994           0
     12195 TIP3     1292     TIP3     H1       HT       0.417000       1.00800           0
     12196 TIP3     1292     TIP3     H2       HT       0.417000       1.00800           0
     12197 TIP3     1293     TIP3     OH2      OT      -0.834000       15.9994           0
     12198 TIP3     1293     TIP3     H1       HT       0.417000       1.00800           0
     12199 TIP3     1293     TIP3     H2       HT       0.417000       1.00800           0
     12200 TIP3     1294     TIP3     OH2      OT      -0.834000       15.9994           0
     12201 TIP3     1294     TIP3     H1       HT       0.417000       1.00800           0
     12202 TIP3     1294     TIP3     H2       HT       0.417000       1.00800           0
     12203 TIP3     1295     TIP3     OH2      OT      -0.834000       15.9994           0
     12204 TIP3     1295     TIP3     H1       HT       0.417000       1.00800           0
     12205 TIP3     1295     TIP3     H2       HT       0.417000       1.00800           0
     12206 TIP3     1296     TIP3     OH2      OT      -0.834000       15.9994           0
     12207 TIP3     1296     TIP3     H1       HT       0.417000       1.00800           0
     12208 TIP3     1296     TIP3     H2       HT       0.417000       1.00800           0
     12209 TIP3     1297     TIP3     OH2      OT      -0.834000       15.9994           0
     12210 TIP3     1297     TIP3     H1       HT       0.417000       1.00800           0
     12211 TIP3     1297     TIP3     H2       HT       0.417000       1.00800           0
     12212 TIP3     1298     TIP3     OH2      OT      -0.834000       15.9994           0
     12213 TIP3     1298     TIP3     H1       HT       0.417000       1.00800           0
     12214 TIP3     1298     TIP3     H2       HT       0.417000       1.00800           0
     12215 TIP3     1299     TIP3     OH2      OT      -0.834000       15.9994           0
     12216 TIP3     1299     TIP3     H1       HT       0.417000       1.00800           0
     12217 TIP3     1299     TIP3     H2       HT       0.417000       1.00800           0
     12218 TIP3     1300     TIP3     OH2      OT      -0.834000       15.9994           0
     12219 TIP3     1300     TIP3     H1       HT       0.417000       1.00800           0
     12220 TIP3     1300     TIP3     H2       HT       0.417000       1.00800           0
     12221 TIP3     1301     TIP3     OH2      OT      -0.834000       15.9994           0
     12222 TIP3     1301     TIP3     H1       HT       0.417000       1.00800           0
     12223 TIP3     1301     TIP3     H2       HT       0.417000       1.00800           0
     12224 TIP3     1302     TIP3     OH2      OT      -0.834000       15.9994           0
     12225 TIP3     1302     TIP3     H1       HT       0.417000       1.00800           0
     12226 TIP3     1302     TIP3     H2       HT       0.417000       1.00800           0
     12227 TIP3     1303     TIP3     OH2      OT      -0.834000       15.9994           0
     12228 TIP3     1303     TIP3     H1       HT       0.417000       1.00800           0
     12229 TIP3     1303     TIP3     H2       HT       0.417000       1.00800           0
     12230 TIP3     1304     TIP3     OH2      OT      -0.834000       15.9994           0
     12231 TIP3     1304     TIP3     H1       HT       0.417000       1.00800           0
     12232 TIP3     1304     TIP3     H2       HT       0.417000       1.00800           0
     12233 TIP3     1305     TIP3     OH2      OT      -0.834000       15.9994           0
     12234 TIP3     1305     TIP3     H1       HT       0.417000       1.00800           0
     12235 TIP3     1305     TIP3     H2       HT       0.417000       1.00800           0
     12236 TIP3     1306     TIP3     OH2      OT      -0.834000       15.9994           0
     12237 TIP3     1306     TIP3     H1       HT       0.417000       1.00800           0
     12238 TIP3     1306     TIP3     H2       HT       0.417000       1.00800           0
     12239 TIP3     1307     TIP3     OH2      OT      -0.834000       15.9994           0
     12240 TIP3     1307     TIP3     H1       HT       0.417000       1.00800           0
     12241 TIP3     1307     TIP3     H2       HT       0.417000       1.00800           0
     12242 TIP3     1308     TIP3     OH2      OT      -0.834000       15.9994           0
     12243 TIP3     1308     TIP3     H1       HT       0.417000       1.00800           0
     12244 TIP3     1308     TIP3     H2       HT       0.417000       1.00800           0
     12245 TIP3     1309     TIP3     OH2      OT      -0.834000       15.9994           0
     12246 TIP3     1309     TIP3     H1       HT       0.417000       1.00800           0
     12247 TIP3     1309     TIP3     H2       HT       0.417000       1.00800           0
     12248 TIP3     1310     TIP3     OH2      OT      -0.834000       15.9994           0
     12249 TIP3     1310     TIP3     H1       HT       0.417000       1.00800           0
     12250 TIP3     1310     TIP3     H2       HT       0.417000       1.00800           0
     12251 TIP3     1311     TIP3     OH2      OT      -0.834000       15.9994           0
     12252 TIP3     1311     TIP3     H1       HT       0.417000       1.00800           0
     12253 TIP3     1311     TIP3     H2       HT       0.417000       1.00800           0
     12254 TIP3     1312     TIP3     OH2      OT      -0.834000       15.9994           0
     12255 TIP3     1312     TIP3     H1       HT       0.417000       1.00800           0
     12256 TIP3     1312     TIP3     H2       HT       0.417000       1.00800           0
     12257 TIP3     1313     TIP3     OH2      OT      -0.834000       15.9994           0
     12258 TIP3     1313     TIP3     H1       HT       0.417000       1.00800           0
     12259 TIP3     1313     TIP3     H2       HT       0.417000       1.00800           0
     12260 TIP3     1314     TIP3     OH2      OT      -0.834000       15.9994           0
     12261 TIP3     1314     TIP3     H1       HT       0.417000       1.00800           0
     12262 TIP3     1314     TIP3     H2       HT       0.417000       1.00800           0
     12263 TIP3     1315     TIP3     OH2      OT      -0.834000       15.9994           0
     12264 TIP3     1315     TIP3     H1       HT       0.417000       1.00800           0
     12265 TIP3     1315     TIP3     H2       HT       0.417000       1.00800           0
     12266 TIP3     1316     TIP3     OH2      OT      -0.834000       15.9994           0
     12267 TIP3     1316     TIP3     H1       HT       0.417000       1.00800           0
     12268 TIP3     1316     TIP3     H2       HT       0.417000       1.00800           0
     12269 TIP3     1317     TIP3     OH2      OT      -0.834000       15.9994           0
     12270 TIP3     1317     TIP3     H1       HT       0.417000       1.00800           0
     12271 TIP3     1317     TIP3     H2       HT       0.417000       1.00800           0
     12272 TIP3     1318     TIP3     OH2      OT      -0.834000       15.9994           0
     12273 TIP3     1318     TIP3     H1       HT       0.417000       1.00800           0
     12274 TIP3     1318     TIP3     H2       HT       0.417000       1.00800           0
     12275 TIP3     1319     TIP3     OH2      OT      -0.834000       15.9994           0
     12276 TIP3     1319     TIP3     H1       HT       0.417000       1.00800           0
     12277 TIP3     1319     TIP3     H2       HT       0.417000       1.00800           0
     12278 TIP3     1320     TIP3     OH2      OT      -0.834000       15.9994           0
     12279 TIP3     1320     TIP3     H1       HT       0.417000       1.00800           0
     12280 TIP3     1320     TIP3     H2       HT       0.417000       1.00800           0
     12281 TIP3     1321     TIP3     OH2      OT      -0.834000       15.9994           0
     12282 TIP3     1321     TIP3     H1       HT       0.417000       1.00800           0
     12283 TIP3     1321     TIP3     H2       HT       0.417000       1.00800           0
     12284 TIP3     1322     TIP3     OH2      OT      -0.834000       15.9994           0
     12285 TIP3     1322     TIP3     H1       HT       0.417000       1.00800           0
     12286 TIP3     1322     TIP3     H2       HT       0.417000       1.00800           0
     12287 TIP3     1323     TIP3     OH2      OT      -0.834000       15.9994           0
     12288 TIP3     1323     TIP3     H1       HT       0.417000       1.00800           0
     12289 TIP3     1323     TIP3     H2       HT       0.417000       1.00800           0
     12290 TIP3     1324     TIP3     OH2      OT      -0.834000       15.9994           0
     12291 TIP3     1324     TIP3     H1       HT       0.417000       1.00800           0
     12292 TIP3     1324     TIP3     H2       HT       0.417000       1.00800           0
     12293 TIP3     1325     TIP3     OH2      OT      -0.834000       15.9994           0
     12294 TIP3     1325     TIP3     H1       HT       0.417000       1.00800           0
     12295 TIP3     1325     TIP3     H2       HT       0.417000       1.00800           0
     12296 TIP3     1326     TIP3     OH2      OT      -0.834000       15.9994           0
     12297 TIP3     1326     TIP3     H1       HT       0.417000       1.00800           0
     12298 TIP3     1326     TIP3     H2       HT       0.417000       1.00800           0
     12299 TIP3     1327     TIP3     OH2      OT      -0.834000       15.9994           0
     12300 TIP3     1327     TIP3     H1       HT       0.417000       1.00800           0
     12301 TIP3     1327     TIP3     H2       HT       0.417000       1.00800           0
     12302 TIP3     1328     TIP3     OH2      OT      -0.834000       15.9994           0
     12303 TIP3     1328     TIP3     H1       HT       0.417000       1.00800           0
     12304 TIP3     1328     TIP3     H2       HT       0.417000       1.00800           0
     12305 TIP3     1329     TIP3     OH2      OT      -0.834000       15.9994           0
     12306 TIP3     1329     TIP3     H1       HT       0.417000       1.00800           0
     12307 TIP3     1329     TIP3     H2       HT       0.417000       1.00800           0
     12308 TIP3     1330     TIP3     OH2      OT      -0.834000       15.9994           0
     12309 TIP3     1330     TIP3     H1       HT       0.417000       1.00800           0
     12310 TIP3     1330     TIP3     H2       HT       0.417000       1.00800           0
     12311 TIP3     1331     TIP3     OH2      OT      -0.834000       15.9994           0
     12312 TIP3     1331     TIP3     H1       HT       0.417000       1.00800           0
     12313 TIP3     1331     TIP3     H2       HT       0.417000       1.00800           0
     12314 TIP3     1332     TIP3     OH2      OT      -0.834000       15.9994           0
     12315 TIP3     1332     TIP3     H1       HT       0.417000       1.00800           0
     12316 TIP3     1332     TIP3     H2       HT       0.417000       1.00800           0
     12317 TIP3     1333     TIP3     OH2      OT      -0.834000       15.9994           0
     12318 TIP3     1333     TIP3     H1       HT       0.417000       1.00800           0
     12319 TIP3     1333     TIP3     H2       HT       0.417000       1.00800           0
     12320 TIP3     1334     TIP3     OH2      OT      -0.834000       15.9994           0
     12321 TIP3     1334     TIP3     H1       HT       0.417000       1.00800           0
     12322 TIP3     1334     TIP3     H2       HT       0.417000       1.00800           0
     12323 TIP3     1335     TIP3     OH2      OT      -0.834000       15.9994           0
     12324 TIP3     1335     TIP3     H1       HT       0.417000       1.00800           0
     12325 TIP3     1335     TIP3     H2       HT       0.417000       1.00800           0
     12326 TIP3     1336     TIP3     OH2      OT      -0.834000       15.9994           0
     12327 TIP3     1336     TIP3     H1       HT       0.417000       1.00800           0
     12328 TIP3     1336     TIP3     H2       HT       0.417000       1.00800           0
     12329 TIP3     1337     TIP3     OH2      OT      -0.834000       15.9994           0
     12330 TIP3     1337     TIP3     H1       HT       0.417000       1.00800           0
     12331 TIP3     1337     TIP3     H2       HT       0.417000       1.00800           0
     12332 TIP3     1338     TIP3     OH2      OT      -0.834000       15.9994           0
     12333 TIP3     1338     TIP3     H1       HT       0.417000       1.00800           0
     12334 TIP3     1338     TIP3     H2       HT       0.417000       1.00800           0
     12335 TIP3     1339     TIP3     OH2      OT      -0.834000       15.9994           0
     12336 TIP3     1339     TIP3     H1       HT       0.417000       1.00800           0
     12337 TIP3     1339     TIP3     H2       HT       0.417000       1.00800           0
     12338 TIP3     1340     TIP3     OH2      OT      -0.834000       15.9994           0
     12339 TIP3     1340     TIP3     H1       HT       0.417000       1.00800           0
     12340 TIP3     1340     TIP3     H2       HT       0.417000       1.00800           0
     12341 TIP3     1341     TIP3     OH2      OT      -0.834000       15.9994           0
     12342 TIP3     1341     TIP3     H1       HT       0.417000       1.00800           0
     12343 TIP3     1341     TIP3     H2       HT       0.417000       1.00800           0
     12344 TIP3     1342     TIP3     OH2      OT      -0.834000       15.9994           0
     12345 TIP3     1342     TIP3     H1       HT       0.417000       1.00800           0
     12346 TIP3     1342     TIP3     H2       HT       0.417000       1.00800           0
     12347 TIP3     1343     TIP3     OH2      OT      -0.834000       15.9994           0
     12348 TIP3     1343     TIP3     H1       HT       0.417000       1.00800           0
     12349 TIP3     1343     TIP3     H2       HT       0.417000       1.00800           0
     12350 TIP3     1344     TIP3     OH2      OT      -0.834000       15.9994           0
     12351 TIP3     1344     TIP3     H1       HT       0.417000       1.00800           0
     12352 TIP3     1344     TIP3     H2       HT       0.417000       1.00800           0
     12353 TIP3     1345     TIP3     OH2      OT      -0.834000       15.9994           0
     12354 TIP3     1345     TIP3     H1       HT       0.417000       1.00800           0
     12355 TIP3     1345     TIP3     H2       HT       0.417000       1.00800           0
     12356 TIP3     1346     TIP3     OH2      OT      -0.834000       15.9994           0
     12357 TIP3     1346     TIP3     H1       HT       0.417000       1.00800           0
     12358 TIP3     1346     TIP3     H2       HT       0.417000       1.00800           0
     12359 TIP3     1347     TIP3     OH2      OT      -0.834000       15.9994           0
     12360 TIP3     1347     TIP3     H1       HT       0.417000       1.00800           0
     12361 TIP3     1347     TIP3     H2       HT       0.417000       1.00800           0
     12362 TIP3     1348     TIP3     OH2      OT      -0.834000       15.9994           0
     12363 TIP3     1348     TIP3     H1       HT       0.417000       1.00800           0
     12364 TIP3     1348     TIP3     H2       HT       0.417000       1.00800           0
     12365 TIP3     1349     TIP3     OH2      OT      -0.834000       15.9994           0
     12366 TIP3     1349     TIP3     H1       HT       0.417000       1.00800           0
     12367 TIP3     1349     TIP3     H2       HT       0.417000       1.00800           0
     12368 TIP3     1350     TIP3     OH2      OT      -0.834000       15.9994           0
     12369 TIP3     1350     TIP3     H1       HT       0.417000       1.00800           0
     12370 TIP3     1350     TIP3     H2       HT       0.417000       1.00800           0
     12371 TIP3     1351     TIP3     OH2      OT      -0.834000       15.9994           0
     12372 TIP3     1351     TIP3     H1       HT       0.417000       1.00800           0
     12373 TIP3     1351     TIP3     H2       HT       0.417000       1.00800           0
     12374 TIP3     1352     TIP3     OH2      OT      -0.834000       15.9994           0
     12375 TIP3     1352     TIP3     H1       HT       0.417000       1.00800           0
     12376 TIP3     1352     TIP3     H2       HT       0.417000       1.00800           0
     12377 TIP3     1353     TIP3     OH2      OT      -0.834000       15.9994           0
     12378 TIP3     1353     TIP3     H1       HT       0.417000       1.00800           0
     12379 TIP3     1353     TIP3     H2       HT       0.417000       1.00800           0
     12380 TIP3     1354     TIP3     OH2      OT      -0.834000       15.9994           0
     12381 TIP3     1354     TIP3     H1       HT       0.417000       1.00800           0
     12382 TIP3     1354     TIP3     H2       HT       0.417000       1.00800           0
     12383 TIP3     1355     TIP3     OH2      OT      -0.834000       15.9994           0
     12384 TIP3     1355     TIP3     H1       HT       0.417000       1.00800           0
     12385 TIP3     1355     TIP3     H2       HT       0.417000       1.00800           0
     12386 TIP3     1356     TIP3     OH2      OT      -0.834000       15.9994           0
     12387 TIP3     1356     TIP3     H1       HT       0.417000       1.00800           0
     12388 TIP3     1356     TIP3     H2       HT       0.417000       1.00800           0
     12389 TIP3     1357     TIP3     OH2      OT      -0.834000       15.9994           0
     12390 TIP3     1357     TIP3     H1       HT       0.417000       1.00800           0
     12391 TIP3     1357     TIP3     H2       HT       0.417000       1.00800           0
     12392 TIP3     1358     TIP3     OH2      OT      -0.834000       15.9994           0
     12393 TIP3     1358     TIP3     H1       HT       0.417000       1.00800           0
     12394 TIP3     1358     TIP3     H2       HT       0.417000       1.00800           0
     12395 TIP3     1359     TIP3     OH2      OT      -0.834000       15.9994           0
     12396 TIP3     1359     TIP3     H1       HT       0.417000       1.00800           0
     12397 TIP3     1359     TIP3     H2       HT       0.417000       1.00800           0
     12398 TIP3     1360     TIP3     OH2      OT      -0.834000       15.9994           0
     12399 TIP3     1360     TIP3     H1       HT       0.417000       1.00800           0
     12400 TIP3     1360     TIP3     H2       HT       0.417000       1.00800           0
     12401 TIP3     1361     TIP3     OH2      OT      -0.834000       15.9994           0
     12402 TIP3     1361     TIP3     H1       HT       0.417000       1.00800           0
     12403 TIP3     1361     TIP3     H2       HT       0.417000       1.00800           0
     12404 TIP3     1362     TIP3     OH2      OT      -0.834000       15.9994           0
     12405 TIP3     1362     TIP3     H1       HT       0.417000       1.00800           0
     12406 TIP3     1362     TIP3     H2       HT       0.417000       1.00800           0
     12407 TIP3     1363     TIP3     OH2      OT      -0.834000       15.9994           0
     12408 TIP3     1363     TIP3     H1       HT       0.417000       1.00800           0
     12409 TIP3     1363     TIP3     H2       HT       0.417000       1.00800           0
     12410 TIP3     1364     TIP3     OH2      OT      -0.834000       15.9994           0
     12411 TIP3     1364     TIP3     H1       HT       0.417000       1.00800           0
     12412 TIP3     1364     TIP3     H2       HT       0.417000       1.00800           0
     12413 TIP3     1365     TIP3     OH2      OT      -0.834000       15.9994           0
     12414 TIP3     1365     TIP3     H1       HT       0.417000       1.00800           0
     12415 TIP3     1365     TIP3     H2       HT       0.417000       1.00800           0
     12416 TIP3     1366     TIP3     OH2      OT      -0.834000       15.9994           0
     12417 TIP3     1366     TIP3     H1       HT       0.417000       1.00800           0
     12418 TIP3     1366     TIP3     H2       HT       0.417000       1.00800           0
     12419 TIP3     1367     TIP3     OH2      OT      -0.834000       15.9994           0
     12420 TIP3     1367     TIP3     H1       HT       0.417000       1.00800           0
     12421 TIP3     1367     TIP3     H2       HT       0.417000       1.00800           0
     12422 TIP3     1368     TIP3     OH2      OT      -0.834000       15.9994           0
     12423 TIP3     1368     TIP3     H1       HT       0.417000       1.00800           0
     12424 TIP3     1368     TIP3     H2       HT       0.417000       1.00800           0
     12425 TIP3     1369     TIP3     OH2      OT      -0.834000       15.9994           0
     12426 TIP3     1369     TIP3     H1       HT       0.417000       1.00800           0
     12427 TIP3     1369     TIP3     H2       HT       0.417000       1.00800           0
     12428 TIP3     1370     TIP3     OH2      OT      -0.834000       15.9994           0
     12429 TIP3     1370     TIP3     H1       HT       0.417000       1.00800           0
     12430 TIP3     1370     TIP3     H2       HT       0.417000       1.00800           0
     12431 TIP3     1371     TIP3     OH2      OT      -0.834000       15.9994           0
     12432 TIP3     1371     TIP3     H1       HT       0.417000       1.00800           0
     12433 TIP3     1371     TIP3     H2       HT       0.417000       1.00800           0
     12434 TIP3     1372     TIP3     OH2      OT      -0.834000       15.9994           0
     12435 TIP3     1372     TIP3     H1       HT       0.417000       1.00800           0
     12436 TIP3     1372     TIP3     H2       HT       0.417000       1.00800           0
     12437 TIP3     1373     TIP3     OH2      OT      -0.834000       15.9994           0
     12438 TIP3     1373     TIP3     H1       HT       0.417000       1.00800           0
     12439 TIP3     1373     TIP3     H2       HT       0.417000       1.00800           0
     12440 TIP3     1374     TIP3     OH2      OT      -0.834000       15.9994           0
     12441 TIP3     1374     TIP3     H1       HT       0.417000       1.00800           0
     12442 TIP3     1374     TIP3     H2       HT       0.417000       1.00800           0
     12443 TIP3     1375     TIP3     OH2      OT      -0.834000       15.9994           0
     12444 TIP3     1375     TIP3     H1       HT       0.417000       1.00800           0
     12445 TIP3     1375     TIP3     H2       HT       0.417000       1.00800           0
     12446 TIP3     1376     TIP3     OH2      OT      -0.834000       15.9994           0
     12447 TIP3     1376     TIP3     H1       HT       0.417000       1.00800           0
     12448 TIP3     1376     TIP3     H2       HT       0.417000       1.00800           0
     12449 TIP3     1377     TIP3     OH2      OT      -0.834000       15.9994           0
     12450 TIP3     1377     TIP3     H1       HT       0.417000       1.00800           0
     12451 TIP3     1377     TIP3     H2       HT       0.417000       1.00800           0
     12452 TIP3     1378     TIP3     OH2      OT      -0.834000       15.9994           0
     12453 TIP3     1378     TIP3     H1       HT       0.417000       1.00800           0
     12454 TIP3     1378     TIP3     H2       HT       0.417000       1.00800           0
     12455 TIP3     1379     TIP3     OH2      OT      -0.834000       15.9994           0
     12456 TIP3     1379     TIP3     H1       HT       0.417000       1.00800           0
     12457 TIP3     1379     TIP3     H2       HT       0.417000       1.00800           0
     12458 TIP3     1380     TIP3     OH2      OT      -0.834000       15.9994           0
     12459 TIP3     1380     TIP3     H1       HT       0.417000       1.00800           0
     12460 TIP3     1380     TIP3     H2       HT       0.417000       1.00800           0
     12461 TIP3     1381     TIP3     OH2      OT      -0.834000       15.9994           0
     12462 TIP3     1381     TIP3     H1       HT       0.417000       1.00800           0
     12463 TIP3     1381     TIP3     H2       HT       0.417000       1.00800           0
     12464 TIP3     1382     TIP3     OH2      OT      -0.834000       15.9994           0
     12465 TIP3     1382     TIP3     H1       HT       0.417000       1.00800           0
     12466 TIP3     1382     TIP3     H2       HT       0.417000       1.00800           0
     12467 TIP3     1383     TIP3     OH2      OT      -0.834000       15.9994           0
     12468 TIP3     1383     TIP3     H1       HT       0.417000       1.00800           0
     12469 TIP3     1383     TIP3     H2       HT       0.417000       1.00800           0
     12470 TIP3     1384     TIP3     OH2      OT      -0.834000       15.9994           0
     12471 TIP3     1384     TIP3     H1       HT       0.417000       1.00800           0
     12472 TIP3     1384     TIP3     H2       HT       0.417000       1.00800           0
     12473 TIP3     1385     TIP3     OH2      OT      -0.834000       15.9994           0
     12474 TIP3     1385     TIP3     H1       HT       0.417000       1.00800           0
     12475 TIP3     1385     TIP3     H2       HT       0.417000       1.00800           0
     12476 TIP3     1386     TIP3     OH2      OT      -0.834000       15.9994           0
     12477 TIP3     1386     TIP3     H1       HT       0.417000       1.00800           0
     12478 TIP3     1386     TIP3     H2       HT       0.417000       1.00800           0
     12479 TIP3     1387     TIP3     OH2      OT      -0.834000       15.9994           0
     12480 TIP3     1387     TIP3     H1       HT       0.417000       1.00800           0
     12481 TIP3     1387     TIP3     H2       HT       0.417000       1.00800           0
     12482 TIP3     1388     TIP3     OH2      OT      -0.834000       15.9994           0
     12483 TIP3     1388     TIP3     H1       HT       0.417000       1.00800           0
     12484 TIP3     1388     TIP3     H2       HT       0.417000       1.00800           0
     12485 TIP3     1389     TIP3     OH2      OT      -0.834000       15.9994           0
     12486 TIP3     1389     TIP3     H1       HT       0.417000       1.00800           0
     12487 TIP3     1389     TIP3     H2       HT       0.417000       1.00800           0
     12488 TIP3     1390     TIP3     OH2      OT      -0.834000       15.9994           0
     12489 TIP3     1390     TIP3     H1       HT       0.417000       1.00800           0
     12490 TIP3     1390     TIP3     H2       HT       0.417000       1.00800           0
     12491 TIP3     1391     TIP3     OH2      OT      -0.834000       15.9994           0
     12492 TIP3     1391     TIP3     H1       HT       0.417000       1.00800           0
     12493 TIP3     1391     TIP3     H2       HT       0.417000       1.00800           0
     12494 TIP3     1392     TIP3     OH2      OT      -0.834000       15.9994           0
     12495 TIP3     1392     TIP3     H1       HT       0.417000       1.00800           0
     12496 TIP3     1392     TIP3     H2       HT       0.417000       1.00800           0
     12497 TIP3     1393     TIP3     OH2      OT      -0.834000       15.9994           0
     12498 TIP3     1393     TIP3     H1       HT       0.417000       1.00800           0
     12499 TIP3     1393     TIP3     H2       HT       0.417000       1.00800           0
     12500 TIP3     1394     TIP3     OH2      OT      -0.834000       15.9994           0
     12501 TIP3     1394     TIP3     H1       HT       0.417000       1.00800           0
     12502 TIP3     1394     TIP3     H2       HT       0.417000       1.00800           0
     12503 TIP3     1395     TIP3     OH2      OT      -0.834000       15.9994           0
     12504 TIP3     1395     TIP3     H1       HT       0.417000       1.00800           0
     12505 TIP3     1395     TIP3     H2       HT       0.417000       1.00800           0
     12506 TIP3     1396     TIP3     OH2      OT      -0.834000       15.9994           0
     12507 TIP3     1396     TIP3     H1       HT       0.417000       1.00800           0
     12508 TIP3     1396     TIP3     H2       HT       0.417000       1.00800           0
     12509 TIP3     1397     TIP3     OH2      OT      -0.834000       15.9994           0
     12510 TIP3     1397     TIP3     H1       HT       0.417000       1.00800           0
     12511 TIP3     1397     TIP3     H2       HT       0.417000       1.00800           0
     12512 TIP3     1398     TIP3     OH2      OT      -0.834000       15.9994           0
     12513 TIP3     1398     TIP3     H1       HT       0.417000       1.00800           0
     12514 TIP3     1398     TIP3     H2       HT       0.417000       1.00800           0
     12515 TIP3     1399     TIP3     OH2      OT      -0.834000       15.9994           0
     12516 TIP3     1399     TIP3     H1       HT       0.417000       1.00800           0
     12517 TIP3     1399     TIP3     H2       HT       0.417000       1.00800           0
     12518 TIP3     1400     TIP3     OH2      OT      -0.834000       15.9994           0
     12519 TIP3     1400     TIP3     H1       HT       0.417000       1.00800           0
     12520 TIP3     1400     TIP3     H2       HT       0.417000       1.00800           0
     12521 TIP3     1401     TIP3     OH2      OT      -0.834000       15.9994           0
     12522 TIP3     1401     TIP3     H1       HT       0.417000       1.00800           0
     12523 TIP3     1401     TIP3     H2       HT       0.417000       1.00800           0
     12524 TIP3     1402     TIP3     OH2      OT      -0.834000       15.9994           0
     12525 TIP3     1402     TIP3     H1       HT       0.417000       1.00800           0
     12526 TIP3     1402     TIP3     H2       HT       0.417000       1.00800           0
     12527 TIP3     1403     TIP3     OH2      OT      -0.834000       15.9994           0
     12528 TIP3     1403     TIP3     H1       HT       0.417000       1.00800           0
     12529 TIP3     1403     TIP3     H2       HT       0.417000       1.00800           0
     12530 TIP3     1404     TIP3     OH2      OT      -0.834000       15.9994           0
     12531 TIP3     1404     TIP3     H1       HT       0.417000       1.00800           0
     12532 TIP3     1404     TIP3     H2       HT       0.417000       1.00800           0
     12533 TIP3     1405     TIP3     OH2      OT      -0.834000       15.9994           0
     12534 TIP3     1405     TIP3     H1       HT       0.417000       1.00800           0
     12535 TIP3     1405     TIP3     H2       HT       0.417000       1.00800           0
     12536 TIP3     1406     TIP3     OH2      OT      -0.834000       15.9994           0
     12537 TIP3     1406     TIP3     H1       HT       0.417000       1.00800           0
     12538 TIP3     1406     TIP3     H2       HT       0.417000       1.00800           0
     12539 TIP3     1407     TIP3     OH2      OT      -0.834000       15.9994           0
     12540 TIP3     1407     TIP3     H1       HT       0.417000       1.00800           0
     12541 TIP3     1407     TIP3     H2       HT       0.417000       1.00800           0
     12542 TIP3     1408     TIP3     OH2      OT      -0.834000       15.9994           0
     12543 TIP3     1408     TIP3     H1       HT       0.417000       1.00800           0
     12544 TIP3     1408     TIP3     H2       HT       0.417000       1.00800           0
     12545 TIP3     1409     TIP3     OH2      OT      -0.834000       15.9994           0
     12546 TIP3     1409     TIP3     H1       HT       0.417000       1.00800           0
     12547 TIP3     1409     TIP3     H2       HT       0.417000       1.00800           0
     12548 TIP3     1410     TIP3     OH2      OT      -0.834000       15.9994           0
     12549 TIP3     1410     TIP3     H1       HT       0.417000       1.00800           0
     12550 TIP3     1410     TIP3     H2       HT       0.417000       1.00800           0
     12551 TIP3     1411     TIP3     OH2      OT      -0.834000       15.9994           0
     12552 TIP3     1411     TIP3     H1       HT       0.417000       1.00800           0
     12553 TIP3     1411     TIP3     H2       HT       0.417000       1.00800           0
     12554 TIP3     1412     TIP3     OH2      OT      -0.834000       15.9994           0
     12555 TIP3     1412     TIP3     H1       HT       0.417000       1.00800           0
     12556 TIP3     1412     TIP3     H2       HT       0.417000       1.00800           0
     12557 TIP3     1413     TIP3     OH2      OT      -0.834000       15.9994           0
     12558 TIP3     1413     TIP3     H1       HT       0.417000       1.00800           0
     12559 TIP3     1413     TIP3     H2       HT       0.417000       1.00800           0
     12560 TIP3     1414     TIP3     OH2      OT      -0.834000       15.9994           0
     12561 TIP3     1414     TIP3     H1       HT       0.417000       1.00800           0
     12562 TIP3     1414     TIP3     H2       HT       0.417000       1.00800           0
     12563 TIP3     1415     TIP3     OH2      OT      -0.834000       15.9994           0
     12564 TIP3     1415     TIP3     H1       HT       0.417000       1.00800           0
     12565 TIP3     1415     TIP3     H2       HT       0.417000       1.00800           0
     12566 TIP3     1416     TIP3     OH2      OT      -0.834000       15.9994           0
     12567 TIP3     1416     TIP3     H1       HT       0.417000       1.00800           0
     12568 TIP3     1416     TIP3     H2       HT       0.417000       1.00800           0
     12569 TIP3     1417     TIP3     OH2      OT      -0.834000       15.9994           0
     12570 TIP3     1417     TIP3     H1       HT       0.417000       1.00800           0
     12571 TIP3     1417     TIP3     H2       HT       0.417000       1.00800           0
     12572 TIP3     1418     TIP3     OH2      OT      -0.834000       15.9994           0
     12573 TIP3     1418     TIP3     H1       HT       0.417000       1.00800           0
     12574 TIP3     1418     TIP3     H2       HT       0.417000       1.00800           0
     12575 TIP3     1419     TIP3     OH2      OT      -0.834000       15.9994           0
     12576 TIP3     1419     TIP3     H1       HT       0.417000       1.00800           0
     12577 TIP3     1419     TIP3     H2       HT       0.417000       1.00800           0
     12578 TIP3     1420     TIP3     OH2      OT      -0.834000       15.9994           0
     12579 TIP3     1420     TIP3     H1       HT       0.417000       1.00800           0
     12580 TIP3     1420     TIP3     H2       HT       0.417000       1.00800           0
     12581 TIP3     1421     TIP3     OH2      OT      -0.834000       15.9994           0
     12582 TIP3     1421     TIP3     H1       HT       0.417000       1.00800           0
     12583 TIP3     1421     TIP3     H2       HT       0.417000       1.00800           0
     12584 TIP3     1422     TIP3     OH2      OT      -0.834000       15.9994           0
     12585 TIP3     1422     TIP3     H1       HT       0.417000       1.00800           0
     12586 TIP3     1422     TIP3     H2       HT       0.417000       1.00800           0
     12587 TIP3     1423     TIP3     OH2      OT      -0.834000       15.9994           0
     12588 TIP3     1423     TIP3     H1       HT       0.417000       1.00800           0
     12589 TIP3     1423     TIP3     H2       HT       0.417000       1.00800           0
     12590 TIP3     1424     TIP3     OH2      OT      -0.834000       15.9994           0
     12591 TIP3     1424     TIP3     H1       HT       0.417000       1.00800           0
     12592 TIP3     1424     TIP3     H2       HT       0.417000       1.00800           0
     12593 TIP3     1425     TIP3     OH2      OT      -0.834000       15.9994           0
     12594 TIP3     1425     TIP3     H1       HT       0.417000       1.00800           0
     12595 TIP3     1425     TIP3     H2       HT       0.417000       1.00800           0
     12596 TIP3     1426     TIP3     OH2      OT      -0.834000       15.9994           0
     12597 TIP3     1426     TIP3     H1       HT       0.417000       1.00800           0
     12598 TIP3     1426     TIP3     H2       HT       0.417000       1.00800           0
     12599 TIP3     1427     TIP3     OH2      OT      -0.834000       15.9994           0
     12600 TIP3     1427     TIP3     H1       HT       0.417000       1.00800           0
     12601 TIP3     1427     TIP3     H2       HT       0.417000       1.00800           0
     12602 TIP3     1428     TIP3     OH2      OT      -0.834000       15.9994           0
     12603 TIP3     1428     TIP3     H1       HT       0.417000       1.00800           0
     12604 TIP3     1428     TIP3     H2       HT       0.417000       1.00800           0
     12605 TIP3     1429     TIP3     OH2      OT      -0.834000       15.9994           0
     12606 TIP3     1429     TIP3     H1       HT       0.417000       1.00800           0
     12607 TIP3     1429     TIP3     H2       HT       0.417000       1.00800           0
     12608 TIP3     1430     TIP3     OH2      OT      -0.834000       15.9994           0
     12609 TIP3     1430     TIP3     H1       HT       0.417000       1.00800           0
     12610 TIP3     1430     TIP3     H2       HT       0.417000       1.00800           0
     12611 TIP3     1431     TIP3     OH2      OT      -0.834000       15.9994           0
     12612 TIP3     1431     TIP3     H1       HT       0.417000       1.00800           0
     12613 TIP3     1431     TIP3     H2       HT       0.417000       1.00800           0
     12614 TIP3     1432     TIP3     OH2      OT      -0.834000       15.9994           0
     12615 TIP3     1432     TIP3     H1       HT       0.417000       1.00800           0
     12616 TIP3     1432     TIP3     H2       HT       0.417000       1.00800           0
     12617 TIP3     1433     TIP3     OH2      OT      -0.834000       15.9994           0
     12618 TIP3     1433     TIP3     H1       HT       0.417000       1.00800           0
     12619 TIP3     1433     TIP3     H2       HT       0.417000       1.00800           0
     12620 TIP3     1434     TIP3     OH2      OT      -0.834000       15.9994           0
     12621 TIP3     1434     TIP3     H1       HT       0.417000       1.00800           0
     12622 TIP3     1434     TIP3     H2       HT       0.417000       1.00800           0
     12623 TIP3     1435     TIP3     OH2      OT      -0.834000       15.9994           0
     12624 TIP3     1435     TIP3     H1       HT       0.417000       1.00800           0
     12625 TIP3     1435     TIP3     H2       HT       0.417000       1.00800           0
     12626 TIP3     1436     TIP3     OH2      OT      -0.834000       15.9994           0
     12627 TIP3     1436     TIP3     H1       HT       0.417000       1.00800           0
     12628 TIP3     1436     TIP3     H2       HT       0.417000       1.00800           0
     12629 TIP3     1437     TIP3     OH2      OT      -0.834000       15.9994           0
     12630 TIP3     1437     TIP3     H1       HT       0.417000       1.00800           0
     12631 TIP3     1437     TIP3     H2       HT       0.417000       1.00800           0
     12632 TIP3     1438     TIP3     OH2      OT      -0.834000       15.9994           0
     12633 TIP3     1438     TIP3     H1       HT       0.417000       1.00800           0
     12634 TIP3     1438     TIP3     H2       HT       0.417000       1.00800           0
     12635 TIP3     1439     TIP3     OH2      OT      -0.834000       15.9994           0
     12636 TIP3     1439     TIP3     H1       HT       0.417000       1.00800           0
     12637 TIP3     1439     TIP3     H2       HT       0.417000       1.00800           0
     12638 TIP3     1440     TIP3     OH2      OT      -0.834000       15.9994           0
     12639 TIP3     1440     TIP3     H1       HT       0.417000       1.00800           0
     12640 TIP3     1440     TIP3     H2       HT       0.417000       1.00800           0
     12641 TIP3     1441     TIP3     OH2      OT      -0.834000       15.9994           0
     12642 TIP3     1441     TIP3     H1       HT       0.417000       1.00800           0
     12643 TIP3     1441     TIP3     H2       HT       0.417000       1.00800           0
     12644 TIP3     1442     TIP3     OH2      OT      -0.834000       15.9994           0
     12645 TIP3     1442     TIP3     H1       HT       0.417000       1.00800           0
     12646 TIP3     1442     TIP3     H2       HT       0.417000       1.00800           0
     12647 TIP3     1443     TIP3     OH2      OT      -0.834000       15.9994           0
     12648 TIP3     1443     TIP3     H1       HT       0.417000       1.00800           0
     12649 TIP3     1443     TIP3     H2       HT       0.417000       1.00800           0
     12650 TIP3     1444     TIP3     OH2      OT      -0.834000       15.9994           0
     12651 TIP3     1444     TIP3     H1       HT       0.417000       1.00800           0
     12652 TIP3     1444     TIP3     H2       HT       0.417000       1.00800           0
     12653 TIP3     1445     TIP3     OH2      OT      -0.834000       15.9994           0
     12654 TIP3     1445     TIP3     H1       HT       0.417000       1.00800           0
     12655 TIP3     1445     TIP3     H2       HT       0.417000       1.00800           0
     12656 TIP3     1446     TIP3     OH2      OT      -0.834000       15.9994           0
     12657 TIP3     1446     TIP3     H1       HT       0.417000       1.00800           0
     12658 TIP3     1446     TIP3     H2       HT       0.417000       1.00800           0
     12659 TIP3     1447     TIP3     OH2      OT      -0.834000       15.9994           0
     12660 TIP3     1447     TIP3     H1       HT       0.417000       1.00800           0
     12661 TIP3     1447     TIP3     H2       HT       0.417000       1.00800           0
     12662 TIP3     1448     TIP3     OH2      OT      -0.834000       15.9994           0
     12663 TIP3     1448     TIP3     H1       HT       0.417000       1.00800           0
     12664 TIP3     1448     TIP3     H2       HT       0.417000       1.00800           0
     12665 TIP3     1449     TIP3     OH2      OT      -0.834000       15.9994           0
     12666 TIP3     1449     TIP3     H1       HT       0.417000       1.00800           0
     12667 TIP3     1449     TIP3     H2       HT       0.417000       1.00800           0
     12668 TIP3     1450     TIP3     OH2      OT      -0.834000       15.9994           0
     12669 TIP3     1450     TIP3     H1       HT       0.417000       1.00800           0
     12670 TIP3     1450     TIP3     H2       HT       0.417000       1.00800           0
     12671 TIP3     1451     TIP3     OH2      OT      -0.834000       15.9994           0
     12672 TIP3     1451     TIP3     H1       HT       0.417000       1.00800           0
     12673 TIP3     1451     TIP3     H2       HT       0.417000       1.00800           0
     12674 TIP3     1452     TIP3     OH2      OT      -0.834000       15.9994           0
     12675 TIP3     1452     TIP3     H1       HT       0.417000       1.00800           0
     12676 TIP3     1452     TIP3     H2       HT       0.417000       1.00800           0
     12677 TIP3     1453     TIP3     OH2      OT      -0.834000       15.9994           0
     12678 TIP3     1453     TIP3     H1       HT       0.417000       1.00800           0
     12679 TIP3     1453     TIP3     H2       HT       0.417000       1.00800           0
     12680 TIP3     1454     TIP3     OH2      OT      -0.834000       15.9994           0
     12681 TIP3     1454     TIP3     H1       HT       0.417000       1.00800           0
     12682 TIP3     1454     TIP3     H2       HT       0.417000       1.00800           0
     12683 TIP3     1455     TIP3     OH2      OT      -0.834000       15.9994           0
     12684 TIP3     1455     TIP3     H1       HT       0.417000       1.00800           0
     12685 TIP3     1455     TIP3     H2       HT       0.417000       1.00800           0
     12686 TIP3     1456     TIP3     OH2      OT      -0.834000       15.9994           0
     12687 TIP3     1456     TIP3     H1       HT       0.417000       1.00800           0
     12688 TIP3     1456     TIP3     H2       HT       0.417000       1.00800           0
     12689 TIP3     1457     TIP3     OH2      OT      -0.834000       15.9994           0
     12690 TIP3     1457     TIP3     H1       HT       0.417000       1.00800           0
     12691 TIP3     1457     TIP3     H2       HT       0.417000       1.00800           0
     12692 TIP3     1458     TIP3     OH2      OT      -0.834000       15.9994           0
     12693 TIP3     1458     TIP3     H1       HT       0.417000       1.00800           0
     12694 TIP3     1458     TIP3     H2       HT       0.417000       1.00800           0
     12695 TIP3     1459     TIP3     OH2      OT      -0.834000       15.9994           0
     12696 TIP3     1459     TIP3     H1       HT       0.417000       1.00800           0
     12697 TIP3     1459     TIP3     H2       HT       0.417000       1.00800           0
     12698 TIP3     1460     TIP3     OH2      OT      -0.834000       15.9994           0
     12699 TIP3     1460     TIP3     H1       HT       0.417000       1.00800           0
     12700 TIP3     1460     TIP3     H2       HT       0.417000       1.00800           0
     12701 TIP3     1461     TIP3     OH2      OT      -0.834000       15.9994           0
     12702 TIP3     1461     TIP3     H1       HT       0.417000       1.00800           0
     12703 TIP3     1461     TIP3     H2       HT       0.417000       1.00800           0
     12704 TIP3     1462     TIP3     OH2      OT      -0.834000       15.9994           0
     12705 TIP3     1462     TIP3     H1       HT       0.417000       1.00800           0
     12706 TIP3     1462     TIP3     H2       HT       0.417000       1.00800           0
     12707 TIP3     1463     TIP3     OH2      OT      -0.834000       15.9994           0
     12708 TIP3     1463     TIP3     H1       HT       0.417000       1.00800           0
     12709 TIP3     1463     TIP3     H2       HT       0.417000       1.00800           0
     12710 TIP3     1464     TIP3     OH2      OT      -0.834000       15.9994           0
     12711 TIP3     1464     TIP3     H1       HT       0.417000       1.00800           0
     12712 TIP3     1464     TIP3     H2       HT       0.417000       1.00800           0
     12713 TIP3     1465     TIP3     OH2      OT      -0.834000       15.9994           0
     12714 TIP3     1465     TIP3     H1       HT       0.417000       1.00800           0
     12715 TIP3     1465     TIP3     H2       HT       0.417000       1.00800           0
     12716 TIP3     1466     TIP3     OH2      OT      -0.834000       15.9994           0
     12717 TIP3     1466     TIP3     H1       HT       0.417000       1.00800           0
     12718 TIP3     1466     TIP3     H2       HT       0.417000       1.00800           0
     12719 TIP3     1467     TIP3     OH2      OT      -0.834000       15.9994           0
     12720 TIP3     1467     TIP3     H1       HT       0.417000       1.00800           0
     12721 TIP3     1467     TIP3     H2       HT       0.417000       1.00800           0
     12722 TIP3     1468     TIP3     OH2      OT      -0.834000       15.9994           0
     12723 TIP3     1468     TIP3     H1       HT       0.417000       1.00800           0
     12724 TIP3     1468     TIP3     H2       HT       0.417000       1.00800           0
     12725 TIP3     1469     TIP3     OH2      OT      -0.834000       15.9994           0
     12726 TIP3     1469     TIP3     H1       HT       0.417000       1.00800           0
     12727 TIP3     1469     TIP3     H2       HT       0.417000       1.00800           0
     12728 TIP3     1470     TIP3     OH2      OT      -0.834000       15.9994           0
     12729 TIP3     1470     TIP3     H1       HT       0.417000       1.00800           0
     12730 TIP3     1470     TIP3     H2       HT       0.417000       1.00800           0
     12731 TIP3     1471     TIP3     OH2      OT      -0.834000       15.9994           0
     12732 TIP3     1471     TIP3     H1       HT       0.417000       1.00800           0
     12733 TIP3     1471     TIP3     H2       HT       0.417000       1.00800           0
     12734 TIP3     1472     TIP3     OH2      OT      -0.834000       15.9994           0
     12735 TIP3     1472     TIP3     H1       HT       0.417000       1.00800           0
     12736 TIP3     1472     TIP3     H2       HT       0.417000       1.00800           0
     12737 TIP3     1473     TIP3     OH2      OT      -0.834000       15.9994           0
     12738 TIP3     1473     TIP3     H1       HT       0.417000       1.00800           0
     12739 TIP3     1473     TIP3     H2       HT       0.417000       1.00800           0
     12740 TIP3     1474     TIP3     OH2      OT      -0.834000       15.9994           0
     12741 TIP3     1474     TIP3     H1       HT       0.417000       1.00800           0
     12742 TIP3     1474     TIP3     H2       HT       0.417000       1.00800           0
     12743 TIP3     1475     TIP3     OH2      OT      -0.834000       15.9994           0
     12744 TIP3     1475     TIP3     H1       HT       0.417000       1.00800           0
     12745 TIP3     1475     TIP3     H2       HT       0.417000       1.00800           0
     12746 TIP3     1476     TIP3     OH2      OT      -0.834000       15.9994           0
     12747 TIP3     1476     TIP3     H1       HT       0.417000       1.00800           0
     12748 TIP3     1476     TIP3     H2       HT       0.417000       1.00800           0
     12749 TIP3     1477     TIP3     OH2      OT      -0.834000       15.9994           0
     12750 TIP3     1477     TIP3     H1       HT       0.417000       1.00800           0
     12751 TIP3     1477     TIP3     H2       HT       0.417000       1.00800           0
     12752 TIP3     1478     TIP3     OH2      OT      -0.834000       15.9994           0
     12753 TIP3     1478     TIP3     H1       HT       0.417000       1.00800           0
     12754 TIP3     1478     TIP3     H2       HT       0.417000       1.00800           0
     12755 TIP3     1479     TIP3     OH2      OT      -0.834000       15.9994           0
     12756 TIP3     1479     TIP3     H1       HT       0.417000       1.00800           0
     12757 TIP3     1479     TIP3     H2       HT       0.417000       1.00800           0
     12758 TIP3     1480     TIP3     OH2      OT      -0.834000       15.9994           0
     12759 TIP3     1480     TIP3     H1       HT       0.417000       1.00800           0
     12760 TIP3     1480     TIP3     H2       HT       0.417000       1.00800           0
     12761 TIP3     1481     TIP3     OH2      OT      -0.834000       15.9994           0
     12762 TIP3     1481     TIP3     H1       HT       0.417000       1.00800           0
     12763 TIP3     1481     TIP3     H2       HT       0.417000       1.00800           0
     12764 TIP3     1482     TIP3     OH2      OT      -0.834000       15.9994           0
     12765 TIP3     1482     TIP3     H1       HT       0.417000       1.00800           0
     12766 TIP3     1482     TIP3     H2       HT       0.417000       1.00800           0
     12767 TIP3     1483     TIP3     OH2      OT      -0.834000       15.9994           0
     12768 TIP3     1483     TIP3     H1       HT       0.417000       1.00800           0
     12769 TIP3     1483     TIP3     H2       HT       0.417000       1.00800           0
     12770 TIP3     1484     TIP3     OH2      OT      -0.834000       15.9994           0
     12771 TIP3     1484     TIP3     H1       HT       0.417000       1.00800           0
     12772 TIP3     1484     TIP3     H2       HT       0.417000       1.00800           0
     12773 TIP3     1485     TIP3     OH2      OT      -0.834000       15.9994           0
     12774 TIP3     1485     TIP3     H1       HT       0.417000       1.00800           0
     12775 TIP3     1485     TIP3     H2       HT       0.417000       1.00800           0
     12776 TIP3     1486     TIP3     OH2      OT      -0.834000       15.9994           0
     12777 TIP3     1486     TIP3     H1       HT       0.417000       1.00800           0
     12778 TIP3     1486     TIP3     H2       HT       0.417000       1.00800           0
     12779 TIP3     1487     TIP3     OH2      OT      -0.834000       15.9994           0
     12780 TIP3     1487     TIP3     H1       HT       0.417000       1.00800           0
     12781 TIP3     1487     TIP3     H2       HT       0.417000       1.00800           0
     12782 TIP3     1488     TIP3     OH2      OT      -0.834000       15.9994           0
     12783 TIP3     1488     TIP3     H1       HT       0.417000       1.00800           0
     12784 TIP3     1488     TIP3     H2       HT       0.417000       1.00800           0
     12785 TIP3     1489     TIP3     OH2      OT      -0.834000       15.9994           0
     12786 TIP3     1489     TIP3     H1       HT       0.417000       1.00800           0
     12787 TIP3     1489     TIP3     H2       HT       0.417000       1.00800           0
     12788 TIP3     1490     TIP3     OH2      OT      -0.834000       15.9994           0
     12789 TIP3     1490     TIP3     H1       HT       0.417000       1.00800           0
     12790 TIP3     1490     TIP3     H2       HT       0.417000       1.00800           0
     12791 TIP3     1491     TIP3     OH2      OT      -0.834000       15.9994           0
     12792 TIP3     1491     TIP3     H1       HT       0.417000       1.00800           0
     12793 TIP3     1491     TIP3     H2       HT       0.417000       1.00800           0
     12794 TIP3     1492     TIP3     OH2      OT      -0.834000       15.9994           0
     12795 TIP3     1492     TIP3     H1       HT       0.417000       1.00800           0
     12796 TIP3     1492     TIP3     H2       HT       0.417000       1.00800           0
     12797 TIP3     1493     TIP3     OH2      OT      -0.834000       15.9994           0
     12798 TIP3     1493     TIP3     H1       HT       0.417000       1.00800           0
     12799 TIP3     1493     TIP3     H2       HT       0.417000       1.00800           0
     12800 TIP3     1494     TIP3     OH2      OT      -0.834000       15.9994           0
     12801 TIP3     1494     TIP3     H1       HT       0.417000       1.00800           0
     12802 TIP3     1494     TIP3     H2       HT       0.417000       1.00800           0
     12803 TIP3     1495     TIP3     OH2      OT      -0.834000       15.9994           0
     12804 TIP3     1495     TIP3     H1       HT       0.417000       1.00800           0
     12805 TIP3     1495     TIP3     H2       HT       0.417000       1.00800           0
     12806 TIP3     1496     TIP3     OH2      OT      -0.834000       15.9994           0
     12807 TIP3     1496     TIP3     H1       HT       0.417000       1.00800           0
     12808 TIP3     1496     TIP3     H2       HT       0.417000       1.00800           0
     12809 TIP3     1497     TIP3     OH2      OT      -0.834000       15.9994           0
     12810 TIP3     1497     TIP3     H1       HT       0.417000       1.00800           0
     12811 TIP3     1497     TIP3     H2       HT       0.417000       1.00800           0
     12812 TIP3     1498     TIP3     OH2      OT      -0.834000       15.9994           0
     12813 TIP3     1498     TIP3     H1       HT       0.417000       1.00800           0
     12814 TIP3     1498     TIP3     H2       HT       0.417000       1.00800           0
     12815 TIP3     1499     TIP3     OH2      OT      -0.834000       15.9994           0
     12816 TIP3     1499     TIP3     H1       HT       0.417000       1.00800           0
     12817 TIP3     1499     TIP3     H2       HT       0.417000       1.00800           0
     12818 TIP3     1500     TIP3     OH2      OT      -0.834000       15.9994           0
     12819 TIP3     1500     TIP3     H1       HT       0.417000       1.00800           0
     12820 TIP3     1500     TIP3     H2       HT       0.417000       1.00800           0
     12821 TIP3     1501     TIP3     OH2      OT      -0.834000       15.9994           0
     12822 TIP3     1501     TIP3     H1       HT       0.417000       1.00800           0
     12823 TIP3     1501     TIP3     H2       HT       0.417000       1.00800           0
     12824 TIP3     1502     TIP3     OH2      OT      -0.834000       15.9994           0
     12825 TIP3     1502     TIP3     H1       HT       0.417000       1.00800           0
     12826 TIP3     1502     TIP3     H2       HT       0.417000       1.00800           0
     12827 TIP3     1503     TIP3     OH2      OT      -0.834000       15.9994           0
     12828 TIP3     1503     TIP3     H1       HT       0.417000       1.00800           0
     12829 TIP3     1503     TIP3     H2       HT       0.417000       1.00800           0
     12830 TIP3     1504     TIP3     OH2      OT      -0.834000       15.9994           0
     12831 TIP3     1504     TIP3     H1       HT       0.417000       1.00800           0
     12832 TIP3     1504     TIP3     H2       HT       0.417000       1.00800           0
     12833 TIP3     1505     TIP3     OH2      OT      -0.834000       15.9994           0
     12834 TIP3     1505     TIP3     H1       HT       0.417000       1.00800           0
     12835 TIP3     1505     TIP3     H2       HT       0.417000       1.00800           0
     12836 TIP3     1506     TIP3     OH2      OT      -0.834000       15.9994           0
     12837 TIP3     1506     TIP3     H1       HT       0.417000       1.00800           0
     12838 TIP3     1506     TIP3     H2       HT       0.417000       1.00800           0
     12839 TIP3     1507     TIP3     OH2      OT      -0.834000       15.9994           0
     12840 TIP3     1507     TIP3     H1       HT       0.417000       1.00800           0
     12841 TIP3     1507     TIP3     H2       HT       0.417000       1.00800           0
     12842 TIP3     1508     TIP3     OH2      OT      -0.834000       15.9994           0
     12843 TIP3     1508     TIP3     H1       HT       0.417000       1.00800           0
     12844 TIP3     1508     TIP3     H2       HT       0.417000       1.00800           0
     12845 TIP3     1509     TIP3     OH2      OT      -0.834000       15.9994           0
     12846 TIP3     1509     TIP3     H1       HT       0.417000       1.00800           0
     12847 TIP3     1509     TIP3     H2       HT       0.417000       1.00800           0
     12848 TIP3     1510     TIP3     OH2      OT      -0.834000       15.9994           0
     12849 TIP3     1510     TIP3     H1       HT       0.417000       1.00800           0
     12850 TIP3     1510     TIP3     H2       HT       0.417000       1.00800           0
     12851 TIP3     1511     TIP3     OH2      OT      -0.834000       15.9994           0
     12852 TIP3     1511     TIP3     H1       HT       0.417000       1.00800           0
     12853 TIP3     1511     TIP3     H2       HT       0.417000       1.00800           0
     12854 TIP3     1512     TIP3     OH2      OT      -0.834000       15.9994           0
     12855 TIP3     1512     TIP3     H1       HT       0.417000       1.00800           0
     12856 TIP3     1512     TIP3     H2       HT       0.417000       1.00800           0
     12857 TIP3     1513     TIP3     OH2      OT      -0.834000       15.9994           0
     12858 TIP3     1513     TIP3     H1       HT       0.417000       1.00800           0
     12859 TIP3     1513     TIP3     H2       HT       0.417000       1.00800           0
     12860 TIP3     1514     TIP3     OH2      OT      -0.834000       15.9994           0
     12861 TIP3     1514     TIP3     H1       HT       0.417000       1.00800           0
     12862 TIP3     1514     TIP3     H2       HT       0.417000       1.00800           0
     12863 TIP3     1515     TIP3     OH2      OT      -0.834000       15.9994           0
     12864 TIP3     1515     TIP3     H1       HT       0.417000       1.00800           0
     12865 TIP3     1515     TIP3     H2       HT       0.417000       1.00800           0
     12866 TIP3     1516     TIP3     OH2      OT      -0.834000       15.9994           0
     12867 TIP3     1516     TIP3     H1       HT       0.417000       1.00800           0
     12868 TIP3     1516     TIP3     H2       HT       0.417000       1.00800           0
     12869 TIP3     1517     TIP3     OH2      OT      -0.834000       15.9994           0
     12870 TIP3     1517     TIP3     H1       HT       0.417000       1.00800           0
     12871 TIP3     1517     TIP3     H2       HT       0.417000       1.00800           0
     12872 TIP3     1518     TIP3     OH2      OT      -0.834000       15.9994           0
     12873 TIP3     1518     TIP3     H1       HT       0.417000       1.00800           0
     12874 TIP3     1518     TIP3     H2       HT       0.417000       1.00800           0
     12875 TIP3     1519     TIP3     OH2      OT      -0.834000       15.9994           0
     12876 TIP3     1519     TIP3     H1       HT       0.417000       1.00800           0
     12877 TIP3     1519     TIP3     H2       HT       0.417000       1.00800           0
     12878 TIP3     1520     TIP3     OH2      OT      -0.834000       15.9994           0
     12879 TIP3     1520     TIP3     H1       HT       0.417000       1.00800           0
     12880 TIP3     1520     TIP3     H2       HT       0.417000       1.00800           0
     12881 TIP3     1521     TIP3     OH2      OT      -0.834000       15.9994           0
     12882 TIP3     1521     TIP3     H1       HT       0.417000       1.00800           0
     12883 TIP3     1521     TIP3     H2       HT       0.417000       1.00800           0
     12884 TIP3     1522     TIP3     OH2      OT      -0.834000       15.9994           0
     12885 TIP3     1522     TIP3     H1       HT       0.417000       1.00800           0
     12886 TIP3     1522     TIP3     H2       HT       0.417000       1.00800           0
     12887 TIP3     1523     TIP3     OH2      OT      -0.834000       15.9994           0
     12888 TIP3     1523     TIP3     H1       HT       0.417000       1.00800           0
     12889 TIP3     1523     TIP3     H2       HT       0.417000       1.00800           0
     12890 TIP3     1524     TIP3     OH2      OT      -0.834000       15.9994           0
     12891 TIP3     1524     TIP3     H1       HT       0.417000       1.00800           0
     12892 TIP3     1524     TIP3     H2       HT       0.417000       1.00800           0
     12893 TIP3     1525     TIP3     OH2      OT      -0.834000       15.9994           0
     12894 TIP3     1525     TIP3     H1       HT       0.417000       1.00800           0
     12895 TIP3     1525     TIP3     H2       HT       0.417000       1.00800           0
     12896 TIP3     1526     TIP3     OH2      OT      -0.834000       15.9994           0
     12897 TIP3     1526     TIP3     H1       HT       0.417000       1.00800           0
     12898 TIP3     1526     TIP3     H2       HT       0.417000       1.00800           0
     12899 TIP3     1527     TIP3     OH2      OT      -0.834000       15.9994           0
     12900 TIP3     1527     TIP3     H1       HT       0.417000       1.00800           0
     12901 TIP3     1527     TIP3     H2       HT       0.417000       1.00800           0
     12902 TIP3     1528     TIP3     OH2      OT      -0.834000       15.9994           0
     12903 TIP3     1528     TIP3     H1       HT       0.417000       1.00800           0
     12904 TIP3     1528     TIP3     H2       HT       0.417000       1.00800           0
     12905 TIP3     1529     TIP3     OH2      OT      -0.834000       15.9994           0
     12906 TIP3     1529     TIP3     H1       HT       0.417000       1.00800           0
     12907 TIP3     1529     TIP3     H2       HT       0.417000       1.00800           0
     12908 TIP3     1530     TIP3     OH2      OT      -0.834000       15.9994           0
     12909 TIP3     1530     TIP3     H1       HT       0.417000       1.00800           0
     12910 TIP3     1530     TIP3     H2       HT       0.417000       1.00800           0
     12911 TIP3     1531     TIP3     OH2      OT      -0.834000       15.9994           0
     12912 TIP3     1531     TIP3     H1       HT       0.417000       1.00800           0
     12913 TIP3     1531     TIP3     H2       HT       0.417000       1.00800           0
     12914 TIP3     1532     TIP3     OH2      OT      -0.834000       15.9994           0
     12915 TIP3     1532     TIP3     H1       HT       0.417000       1.00800           0
     12916 TIP3     1532     TIP3     H2       HT       0.417000       1.00800           0
     12917 TIP3     1533     TIP3     OH2      OT      -0.834000       15.9994           0
     12918 TIP3     1533     TIP3     H1       HT       0.417000       1.00800           0
     12919 TIP3     1533     TIP3     H2       HT       0.417000       1.00800           0
     12920 TIP3     1534     TIP3     OH2      OT      -0.834000       15.9994           0
     12921 TIP3     1534     TIP3     H1       HT       0.417000       1.00800           0
     12922 TIP3     1534     TIP3     H2       HT       0.417000       1.00800           0
     12923 TIP3     1535     TIP3     OH2      OT      -0.834000       15.9994           0
     12924 TIP3     1535     TIP3     H1       HT       0.417000       1.00800           0
     12925 TIP3     1535     TIP3     H2       HT       0.417000       1.00800           0
     12926 TIP3     1536     TIP3     OH2      OT      -0.834000       15.9994           0
     12927 TIP3     1536     TIP3     H1       HT       0.417000       1.00800           0
     12928 TIP3     1536     TIP3     H2       HT       0.417000       1.00800           0
     12929 TIP3     1537     TIP3     OH2      OT      -0.834000       15.9994           0
     12930 TIP3     1537     TIP3     H1       HT       0.417000       1.00800           0
     12931 TIP3     1537     TIP3     H2       HT       0.417000       1.00800           0
     12932 TIP3     1538     TIP3     OH2      OT      -0.834000       15.9994           0
     12933 TIP3     1538     TIP3     H1       HT       0.417000       1.00800           0
     12934 TIP3     1538     TIP3     H2       HT       0.417000       1.00800           0
     12935 TIP3     1539     TIP3     OH2      OT      -0.834000       15.9994           0
     12936 TIP3     1539     TIP3     H1       HT       0.417000       1.00800           0
     12937 TIP3     1539     TIP3     H2       HT       0.417000       1.00800           0
     12938 TIP3     1540     TIP3     OH2      OT      -0.834000       15.9994           0
     12939 TIP3     1540     TIP3     H1       HT       0.417000       1.00800           0
     12940 TIP3     1540     TIP3     H2       HT       0.417000       1.00800           0
     12941 TIP3     1541     TIP3     OH2      OT      -0.834000       15.9994           0
     12942 TIP3     1541     TIP3     H1       HT       0.417000       1.00800           0
     12943 TIP3     1541     TIP3     H2       HT       0.417000       1.00800           0
     12944 TIP3     1542     TIP3     OH2      OT      -0.834000       15.9994           0
     12945 TIP3     1542     TIP3     H1       HT       0.417000       1.00800           0
     12946 TIP3     1542     TIP3     H2       HT       0.417000       1.00800           0
     12947 TIP3     1543     TIP3     OH2      OT      -0.834000       15.9994           0
     12948 TIP3     1543     TIP3     H1       HT       0.417000       1.00800           0
     12949 TIP3     1543     TIP3     H2       HT       0.417000       1.00800           0
     12950 TIP3     1544     TIP3     OH2      OT      -0.834000       15.9994           0
     12951 TIP3     1544     TIP3     H1       HT       0.417000       1.00800           0
     12952 TIP3     1544     TIP3     H2       HT       0.417000       1.00800           0
     12953 TIP3     1545     TIP3     OH2      OT      -0.834000       15.9994           0
     12954 TIP3     1545     TIP3     H1       HT       0.417000       1.00800           0
     12955 TIP3     1545     TIP3     H2       HT       0.417000       1.00800           0
     12956 TIP3     1546     TIP3     OH2      OT      -0.834000       15.9994           0
     12957 TIP3     1546     TIP3     H1       HT       0.417000       1.00800           0
     12958 TIP3     1546     TIP3     H2       HT       0.417000       1.00800           0
     12959 TIP3     1547     TIP3     OH2      OT      -0.834000       15.9994           0
     12960 TIP3     1547     TIP3     H1       HT       0.417000       1.00800           0
     12961 TIP3     1547     TIP3     H2       HT       0.417000       1.00800           0
     12962 TIP3     1548     TIP3     OH2      OT      -0.834000       15.9994           0
     12963 TIP3     1548     TIP3     H1       HT       0.417000       1.00800           0
     12964 TIP3     1548     TIP3     H2       HT       0.417000       1.00800           0
     12965 TIP3     1549     TIP3     OH2      OT      -0.834000       15.9994           0
     12966 TIP3     1549     TIP3     H1       HT       0.417000       1.00800           0
     12967 TIP3     1549     TIP3     H2       HT       0.417000       1.00800           0
     12968 TIP3     1550     TIP3     OH2      OT      -0.834000       15.9994           0
     12969 TIP3     1550     TIP3     H1       HT       0.417000       1.00800           0
     12970 TIP3     1550     TIP3     H2       HT       0.417000       1.00800           0
     12971 TIP3     1551     TIP3     OH2      OT      -0.834000       15.9994           0
     12972 TIP3     1551     TIP3     H1       HT       0.417000       1.00800           0
     12973 TIP3     1551     TIP3     H2       HT       0.417000       1.00800           0
     12974 TIP3     1552     TIP3     OH2      OT      -0.834000       15.9994           0
     12975 TIP3     1552     TIP3     H1       HT       0.417000       1.00800           0
     12976 TIP3     1552     TIP3     H2       HT       0.417000       1.00800           0
     12977 TIP3     1553     TIP3     OH2      OT      -0.834000       15.9994           0
     12978 TIP3     1553     TIP3     H1       HT       0.417000       1.00800           0
     12979 TIP3     1553     TIP3     H2       HT       0.417000       1.00800           0
     12980 TIP3     1554     TIP3     OH2      OT      -0.834000       15.9994           0
     12981 TIP3     1554     TIP3     H1       HT       0.417000       1.00800           0
     12982 TIP3     1554     TIP3     H2       HT       0.417000       1.00800           0
     12983 TIP3     1555     TIP3     OH2      OT      -0.834000       15.9994           0
     12984 TIP3     1555     TIP3     H1       HT       0.417000       1.00800           0
     12985 TIP3     1555     TIP3     H2       HT       0.417000       1.00800           0
     12986 TIP3     1556     TIP3     OH2      OT      -0.834000       15.9994           0
     12987 TIP3     1556     TIP3     H1       HT       0.417000       1.00800           0
     12988 TIP3     1556     TIP3     H2       HT       0.417000       1.00800           0
     12989 TIP3     1557     TIP3     OH2      OT      -0.834000       15.9994           0
     12990 TIP3     1557     TIP3     H1       HT       0.417000       1.00800           0
     12991 TIP3     1557     TIP3     H2       HT       0.417000       1.00800           0
     12992 TIP3     1558     TIP3     OH2      OT      -0.834000       15.9994           0
     12993 TIP3     1558     TIP3     H1       HT       0.417000       1.00800           0
     12994 TIP3     1558     TIP3     H2       HT       0.417000       1.00800           0
     12995 TIP3     1559     TIP3     OH2      OT      -0.834000       15.9994           0
     12996 TIP3     1559     TIP3     H1       HT       0.417000       1.00800           0
     12997 TIP3     1559     TIP3     H2       HT       0.417000       1.00800           0
     12998 TIP3     1560     TIP3     OH2      OT      -0.834000       15.9994           0
     12999 TIP3     1560     TIP3     H1       HT       0.417000       1.00800           0
     13000 TIP3     1560     TIP3     H2       HT       0.417000       1.00800           0
     13001 TIP3     1561     TIP3     OH2      OT      -0.834000       15.9994           0
     13002 TIP3     1561     TIP3     H1       HT       0.417000       1.00800           0
     13003 TIP3     1561     TIP3     H2       HT       0.417000       1.00800           0
     13004 TIP3     1562     TIP3     OH2      OT      -0.834000       15.9994           0
     13005 TIP3     1562     TIP3     H1       HT       0.417000       1.00800           0
     13006 TIP3     1562     TIP3     H2       HT       0.417000       1.00800           0
     13007 TIP3     1563     TIP3     OH2      OT      -0.834000       15.9994           0
     13008 TIP3     1563     TIP3     H1       HT       0.417000       1.00800           0
     13009 TIP3     1563     TIP3     H2       HT       0.417000       1.00800           0
     13010 TIP3     1564     TIP3     OH2      OT      -0.834000       15.9994           0
     13011 TIP3     1564     TIP3     H1       HT       0.417000       1.00800           0
     13012 TIP3     1564     TIP3     H2       HT       0.417000       1.00800           0
     13013 TIP3     1565     TIP3     OH2      OT      -0.834000       15.9994           0
     13014 TIP3     1565     TIP3     H1       HT       0.417000       1.00800           0
     13015 TIP3     1565     TIP3     H2       HT       0.417000       1.00800           0
     13016 TIP3     1566     TIP3     OH2      OT      -0.834000       15.9994           0
     13017 TIP3     1566     TIP3     H1       HT       0.417000       1.00800           0
     13018 TIP3     1566     TIP3     H2       HT       0.417000       1.00800           0
     13019 TIP3     1567     TIP3     OH2      OT      -0.834000       15.9994           0
     13020 TIP3     1567     TIP3     H1       HT       0.417000       1.00800           0
     13021 TIP3     1567     TIP3     H2       HT       0.417000       1.00800           0
     13022 TIP3     1568     TIP3     OH2      OT      -0.834000       15.9994           0
     13023 TIP3     1568     TIP3     H1       HT       0.417000       1.00800           0
     13024 TIP3     1568     TIP3     H2       HT       0.417000       1.00800           0
     13025 TIP3     1569     TIP3     OH2      OT      -0.834000       15.9994           0
     13026 TIP3     1569     TIP3     H1       HT       0.417000       1.00800           0
     13027 TIP3     1569     TIP3     H2       HT       0.417000       1.00800           0
     13028 TIP3     1570     TIP3     OH2      OT      -0.834000       15.9994           0
     13029 TIP3     1570     TIP3     H1       HT       0.417000       1.00800           0
     13030 TIP3     1570     TIP3     H2       HT       0.417000       1.00800           0
     13031 TIP3     1571     TIP3     OH2      OT      -0.834000       15.9994           0
     13032 TIP3     1571     TIP3     H1       HT       0.417000       1.00800           0
     13033 TIP3     1571     TIP3     H2       HT       0.417000       1.00800           0
     13034 TIP3     1572     TIP3     OH2      OT      -0.834000       15.9994           0
     13035 TIP3     1572     TIP3     H1       HT       0.417000       1.00800           0
     13036 TIP3     1572     TIP3     H2       HT       0.417000       1.00800           0
     13037 TIP3     1573     TIP3     OH2      OT      -0.834000       15.9994           0
     13038 TIP3     1573     TIP3     H1       HT       0.417000       1.00800           0
     13039 TIP3     1573     TIP3     H2       HT       0.417000       1.00800           0
     13040 TIP3     1574     TIP3     OH2      OT      -0.834000       15.9994           0
     13041 TIP3     1574     TIP3     H1       HT       0.417000       1.00800           0
     13042 TIP3     1574     TIP3     H2       HT       0.417000       1.00800           0
     13043 TIP3     1575     TIP3     OH2      OT      -0.834000       15.9994           0
     13044 TIP3     1575     TIP3     H1       HT       0.417000       1.00800           0
     13045 TIP3     1575     TIP3     H2       HT       0.417000       1.00800           0
     13046 TIP3     1576     TIP3     OH2      OT      -0.834000       15.9994           0
     13047 TIP3     1576     TIP3     H1       HT       0.417000       1.00800           0
     13048 TIP3     1576     TIP3     H2       HT       0.417000       1.00800           0
     13049 TIP3     1577     TIP3     OH2      OT      -0.834000       15.9994           0
     13050 TIP3     1577     TIP3     H1       HT       0.417000       1.00800           0
     13051 TIP3     1577     TIP3     H2       HT       0.417000       1.00800           0
     13052 TIP3     1578     TIP3     OH2      OT      -0.834000       15.9994           0
     13053 TIP3     1578     TIP3     H1       HT       0.417000       1.00800           0
     13054 TIP3     1578     TIP3     H2       HT       0.417000       1.00800           0
     13055 TIP3     1579     TIP3     OH2      OT      -0.834000       15.9994           0
     13056 TIP3     1579     TIP3     H1       HT       0.417000       1.00800           0
     13057 TIP3     1579     TIP3     H2       HT       0.417000       1.00800           0
     13058 TIP3     1580     TIP3     OH2      OT      -0.834000       15.9994           0
     13059 TIP3     1580     TIP3     H1       HT       0.417000       1.00800           0
     13060 TIP3     1580     TIP3     H2       HT       0.417000       1.00800           0
     13061 TIP3     1581     TIP3     OH2      OT      -0.834000       15.9994           0
     13062 TIP3     1581     TIP3     H1       HT       0.417000       1.00800           0
     13063 TIP3     1581     TIP3     H2       HT       0.417000       1.00800           0
     13064 TIP3     1582     TIP3     OH2      OT      -0.834000       15.9994           0
     13065 TIP3     1582     TIP3     H1       HT       0.417000       1.00800           0
     13066 TIP3     1582     TIP3     H2       HT       0.417000       1.00800           0
     13067 TIP3     1583     TIP3     OH2      OT      -0.834000       15.9994           0
     13068 TIP3     1583     TIP3     H1       HT       0.417000       1.00800           0
     13069 TIP3     1583     TIP3     H2       HT       0.417000       1.00800           0
     13070 TIP3     1584     TIP3     OH2      OT      -0.834000       15.9994           0
     13071 TIP3     1584     TIP3     H1       HT       0.417000       1.00800           0
     13072 TIP3     1584     TIP3     H2       HT       0.417000       1.00800           0
     13073 TIP3     1585     TIP3     OH2      OT      -0.834000       15.9994           0
     13074 TIP3     1585     TIP3     H1       HT       0.417000       1.00800           0
     13075 TIP3     1585     TIP3     H2       HT       0.417000       1.00800           0
     13076 TIP3     1586     TIP3     OH2      OT      -0.834000       15.9994           0
     13077 TIP3     1586     TIP3     H1       HT       0.417000       1.00800           0
     13078 TIP3     1586     TIP3     H2       HT       0.417000       1.00800           0
     13079 TIP3     1587     TIP3     OH2      OT      -0.834000       15.9994           0
     13080 TIP3     1587     TIP3     H1       HT       0.417000       1.00800           0
     13081 TIP3     1587     TIP3     H2       HT       0.417000       1.00800           0
     13082 TIP3     1588     TIP3     OH2      OT      -0.834000       15.9994           0
     13083 TIP3     1588     TIP3     H1       HT       0.417000       1.00800           0
     13084 TIP3     1588     TIP3     H2       HT       0.417000       1.00800           0
     13085 TIP3     1589     TIP3     OH2      OT      -0.834000       15.9994           0
     13086 TIP3     1589     TIP3     H1       HT       0.417000       1.00800           0
     13087 TIP3     1589     TIP3     H2       HT       0.417000       1.00800           0
     13088 TIP3     1590     TIP3     OH2      OT      -0.834000       15.9994           0
     13089 TIP3     1590     TIP3     H1       HT       0.417000       1.00800           0
     13090 TIP3     1590     TIP3     H2       HT       0.417000       1.00800           0
     13091 TIP3     1591     TIP3     OH2      OT      -0.834000       15.9994           0
     13092 TIP3     1591     TIP3     H1       HT       0.417000       1.00800           0
     13093 TIP3     1591     TIP3     H2       HT       0.417000       1.00800           0
     13094 TIP3     1592     TIP3     OH2      OT      -0.834000       15.9994           0
     13095 TIP3     1592     TIP3     H1       HT       0.417000       1.00800           0
     13096 TIP3     1592     TIP3     H2       HT       0.417000       1.00800           0
     13097 TIP3     1593     TIP3     OH2      OT      -0.834000       15.9994           0
     13098 TIP3     1593     TIP3     H1       HT       0.417000       1.00800           0
     13099 TIP3     1593     TIP3     H2       HT       0.417000       1.00800           0
     13100 TIP3     1594     TIP3     OH2      OT      -0.834000       15.9994           0
     13101 TIP3     1594     TIP3     H1       HT       0.417000       1.00800           0
     13102 TIP3     1594     TIP3     H2       HT       0.417000       1.00800           0
     13103 TIP3     1595     TIP3     OH2      OT      -0.834000       15.9994           0
     13104 TIP3     1595     TIP3     H1       HT       0.417000       1.00800           0
     13105 TIP3     1595     TIP3     H2       HT       0.417000       1.00800           0
     13106 TIP3     1596     TIP3     OH2      OT      -0.834000       15.9994           0
     13107 TIP3     1596     TIP3     H1       HT       0.417000       1.00800           0
     13108 TIP3     1596     TIP3     H2       HT       0.417000       1.00800           0
     13109 TIP3     1597     TIP3     OH2      OT      -0.834000       15.9994           0
     13110 TIP3     1597     TIP3     H1       HT       0.417000       1.00800           0
     13111 TIP3     1597     TIP3     H2       HT       0.417000       1.00800           0
     13112 TIP3     1598     TIP3     OH2      OT      -0.834000       15.9994           0
     13113 TIP3     1598     TIP3     H1       HT       0.417000       1.00800           0
     13114 TIP3     1598     TIP3     H2       HT       0.417000       1.00800           0
     13115 TIP3     1599     TIP3     OH2      OT      -0.834000       15.9994           0
     13116 TIP3     1599     TIP3     H1       HT       0.417000       1.00800           0
     13117 TIP3     1599     TIP3     H2       HT       0.417000       1.00800           0
     13118 TIP3     1600     TIP3     OH2      OT      -0.834000       15.9994           0
     13119 TIP3     1600     TIP3     H1       HT       0.417000       1.00800           0
     13120 TIP3     1600     TIP3     H2       HT       0.417000       1.00800           0
     13121 TIP3     1601     TIP3     OH2      OT      -0.834000       15.9994           0
     13122 TIP3     1601     TIP3     H1       HT       0.417000       1.00800           0
     13123 TIP3     1601     TIP3     H2       HT       0.417000       1.00800           0
     13124 TIP3     1602     TIP3     OH2      OT      -0.834000       15.9994           0
     13125 TIP3     1602     TIP3     H1       HT       0.417000       1.00800           0
     13126 TIP3     1602     TIP3     H2       HT       0.417000       1.00800           0
     13127 TIP3     1603     TIP3     OH2      OT      -0.834000       15.9994           0
     13128 TIP3     1603     TIP3     H1       HT       0.417000       1.00800           0
     13129 TIP3     1603     TIP3     H2       HT       0.417000       1.00800           0
     13130 TIP3     1604     TIP3     OH2      OT      -0.834000       15.9994           0
     13131 TIP3     1604     TIP3     H1       HT       0.417000       1.00800           0
     13132 TIP3     1604     TIP3     H2       HT       0.417000       1.00800           0
     13133 TIP3     1605     TIP3     OH2      OT      -0.834000       15.9994           0
     13134 TIP3     1605     TIP3     H1       HT       0.417000       1.00800           0
     13135 TIP3     1605     TIP3     H2       HT       0.417000       1.00800           0
     13136 TIP3     1606     TIP3     OH2      OT      -0.834000       15.9994           0
     13137 TIP3     1606     TIP3     H1       HT       0.417000       1.00800           0
     13138 TIP3     1606     TIP3     H2       HT       0.417000       1.00800           0
     13139 TIP3     1607     TIP3     OH2      OT      -0.834000       15.9994           0
     13140 TIP3     1607     TIP3     H1       HT       0.417000       1.00800           0
     13141 TIP3     1607     TIP3     H2       HT       0.417000       1.00800           0
     13142 TIP3     1608     TIP3     OH2      OT      -0.834000       15.9994           0
     13143 TIP3     1608     TIP3     H1       HT       0.417000       1.00800           0
     13144 TIP3     1608     TIP3     H2       HT       0.417000       1.00800           0
     13145 TIP3     1609     TIP3     OH2      OT      -0.834000       15.9994           0
     13146 TIP3     1609     TIP3     H1       HT       0.417000       1.00800           0
     13147 TIP3     1609     TIP3     H2       HT       0.417000       1.00800           0
     13148 TIP3     1610     TIP3     OH2      OT      -0.834000       15.9994           0
     13149 TIP3     1610     TIP3     H1       HT       0.417000       1.00800           0
     13150 TIP3     1610     TIP3     H2       HT       0.417000       1.00800           0
     13151 TIP3     1611     TIP3     OH2      OT      -0.834000       15.9994           0
     13152 TIP3     1611     TIP3     H1       HT       0.417000       1.00800           0
     13153 TIP3     1611     TIP3     H2       HT       0.417000       1.00800           0
     13154 TIP3     1612     TIP3     OH2      OT      -0.834000       15.9994           0
     13155 TIP3     1612     TIP3     H1       HT       0.417000       1.00800           0
     13156 TIP3     1612     TIP3     H2       HT       0.417000       1.00800           0
     13157 TIP3     1613     TIP3     OH2      OT      -0.834000       15.9994           0
     13158 TIP3     1613     TIP3     H1       HT       0.417000       1.00800           0
     13159 TIP3     1613     TIP3     H2       HT       0.417000       1.00800           0
     13160 TIP3     1614     TIP3     OH2      OT      -0.834000       15.9994           0
     13161 TIP3     1614     TIP3     H1       HT       0.417000       1.00800           0
     13162 TIP3     1614     TIP3     H2       HT       0.417000       1.00800           0
     13163 TIP3     1615     TIP3     OH2      OT      -0.834000       15.9994           0
     13164 TIP3     1615     TIP3     H1       HT       0.417000       1.00800           0
     13165 TIP3     1615     TIP3     H2       HT       0.417000       1.00800           0
     13166 TIP3     1616     TIP3     OH2      OT      -0.834000       15.9994           0
     13167 TIP3     1616     TIP3     H1       HT       0.417000       1.00800           0
     13168 TIP3     1616     TIP3     H2       HT       0.417000       1.00800           0
     13169 TIP3     1617     TIP3     OH2      OT      -0.834000       15.9994           0
     13170 TIP3     1617     TIP3     H1       HT       0.417000       1.00800           0
     13171 TIP3     1617     TIP3     H2       HT       0.417000       1.00800           0
     13172 TIP3     1618     TIP3     OH2      OT      -0.834000       15.9994           0
     13173 TIP3     1618     TIP3     H1       HT       0.417000       1.00800           0
     13174 TIP3     1618     TIP3     H2       HT       0.417000       1.00800           0
     13175 TIP3     1619     TIP3     OH2      OT      -0.834000       15.9994           0
     13176 TIP3     1619     TIP3     H1       HT       0.417000       1.00800           0
     13177 TIP3     1619     TIP3     H2       HT       0.417000       1.00800           0
     13178 TIP3     1620     TIP3     OH2      OT      -0.834000       15.9994           0
     13179 TIP3     1620     TIP3     H1       HT       0.417000       1.00800           0
     13180 TIP3     1620     TIP3     H2       HT       0.417000       1.00800           0
     13181 TIP3     1621     TIP3     OH2      OT      -0.834000       15.9994           0
     13182 TIP3     1621     TIP3     H1       HT       0.417000       1.00800           0
     13183 TIP3     1621     TIP3     H2       HT       0.417000       1.00800           0
     13184 TIP3     1622     TIP3     OH2      OT      -0.834000       15.9994           0
     13185 TIP3     1622     TIP3     H1       HT       0.417000       1.00800           0
     13186 TIP3     1622     TIP3     H2       HT       0.417000       1.00800           0
     13187 TIP3     1623     TIP3     OH2      OT      -0.834000       15.9994           0
     13188 TIP3     1623     TIP3     H1       HT       0.417000       1.00800           0
     13189 TIP3     1623     TIP3     H2       HT       0.417000       1.00800           0
     13190 TIP3     1624     TIP3     OH2      OT      -0.834000       15.9994           0
     13191 TIP3     1624     TIP3     H1       HT       0.417000       1.00800           0
     13192 TIP3     1624     TIP3     H2       HT       0.417000       1.00800           0
     13193 TIP3     1625     TIP3     OH2      OT      -0.834000       15.9994           0
     13194 TIP3     1625     TIP3     H1       HT       0.417000       1.00800           0
     13195 TIP3     1625     TIP3     H2       HT       0.417000       1.00800           0
     13196 TIP3     1626     TIP3     OH2      OT      -0.834000       15.9994           0
     13197 TIP3     1626     TIP3     H1       HT       0.417000       1.00800           0
     13198 TIP3     1626     TIP3     H2       HT       0.417000       1.00800           0
     13199 TIP3     1627     TIP3     OH2      OT      -0.834000       15.9994           0
     13200 TIP3     1627     TIP3     H1       HT       0.417000       1.00800           0
     13201 TIP3     1627     TIP3     H2       HT       0.417000       1.00800           0
     13202 TIP3     1628     TIP3     OH2      OT      -0.834000       15.9994           0
     13203 TIP3     1628     TIP3     H1       HT       0.417000       1.00800           0
     13204 TIP3     1628     TIP3     H2       HT       0.417000       1.00800           0
     13205 TIP3     1629     TIP3     OH2      OT      -0.834000       15.9994           0
     13206 TIP3     1629     TIP3     H1       HT       0.417000       1.00800           0
     13207 TIP3     1629     TIP3     H2       HT       0.417000       1.00800           0
     13208 TIP3     1630     TIP3     OH2      OT      -0.834000       15.9994           0
     13209 TIP3     1630     TIP3     H1       HT       0.417000       1.00800           0
     13210 TIP3     1630     TIP3     H2       HT       0.417000       1.00800           0
     13211 TIP3     1631     TIP3     OH2      OT      -0.834000       15.9994           0
     13212 TIP3     1631     TIP3     H1       HT       0.417000       1.00800           0
     13213 TIP3     1631     TIP3     H2       HT       0.417000       1.00800           0
     13214 TIP3     1632     TIP3     OH2      OT      -0.834000       15.9994           0
     13215 TIP3     1632     TIP3     H1       HT       0.417000       1.00800           0
     13216 TIP3     1632     TIP3     H2       HT       0.417000       1.00800           0
     13217 TIP3     1633     TIP3     OH2      OT      -0.834000       15.9994           0
     13218 TIP3     1633     TIP3     H1       HT       0.417000       1.00800           0
     13219 TIP3     1633     TIP3     H2       HT       0.417000       1.00800           0
     13220 TIP3     1634     TIP3     OH2      OT      -0.834000       15.9994           0
     13221 TIP3     1634     TIP3     H1       HT       0.417000       1.00800           0
     13222 TIP3     1634     TIP3     H2       HT       0.417000       1.00800           0
     13223 TIP3     1635     TIP3     OH2      OT      -0.834000       15.9994           0
     13224 TIP3     1635     TIP3     H1       HT       0.417000       1.00800           0
     13225 TIP3     1635     TIP3     H2       HT       0.417000       1.00800           0
     13226 TIP3     1636     TIP3     OH2      OT      -0.834000       15.9994           0
     13227 TIP3     1636     TIP3     H1       HT       0.417000       1.00800           0
     13228 TIP3     1636     TIP3     H2       HT       0.417000       1.00800           0
     13229 TIP3     1637     TIP3     OH2      OT      -0.834000       15.9994           0
     13230 TIP3     1637     TIP3     H1       HT       0.417000       1.00800           0
     13231 TIP3     1637     TIP3     H2       HT       0.417000       1.00800           0
     13232 TIP3     1638     TIP3     OH2      OT      -0.834000       15.9994           0
     13233 TIP3     1638     TIP3     H1       HT       0.417000       1.00800           0
     13234 TIP3     1638     TIP3     H2       HT       0.417000       1.00800           0
     13235 TIP3     1639     TIP3     OH2      OT      -0.834000       15.9994           0
     13236 TIP3     1639     TIP3     H1       HT       0.417000       1.00800           0
     13237 TIP3     1639     TIP3     H2       HT       0.417000       1.00800           0
     13238 TIP3     1640     TIP3     OH2      OT      -0.834000       15.9994           0
     13239 TIP3     1640     TIP3     H1       HT       0.417000       1.00800           0
     13240 TIP3     1640     TIP3     H2       HT       0.417000       1.00800           0
     13241 TIP3     1641     TIP3     OH2      OT      -0.834000       15.9994           0
     13242 TIP3     1641     TIP3     H1       HT       0.417000       1.00800           0
     13243 TIP3     1641     TIP3     H2       HT       0.417000       1.00800           0
     13244 TIP3     1642     TIP3     OH2      OT      -0.834000       15.9994           0
     13245 TIP3     1642     TIP3     H1       HT       0.417000       1.00800           0
     13246 TIP3     1642     TIP3     H2       HT       0.417000       1.00800           0
     13247 TIP3     1643     TIP3     OH2      OT      -0.834000       15.9994           0
     13248 TIP3     1643     TIP3     H1       HT       0.417000       1.00800           0
     13249 TIP3     1643     TIP3     H2       HT       0.417000       1.00800           0
     13250 TIP3     1644     TIP3     OH2      OT      -0.834000       15.9994           0
     13251 TIP3     1644     TIP3     H1       HT       0.417000       1.00800           0
     13252 TIP3     1644     TIP3     H2       HT       0.417000       1.00800           0
     13253 TIP3     1645     TIP3     OH2      OT      -0.834000       15.9994           0
     13254 TIP3     1645     TIP3     H1       HT       0.417000       1.00800           0
     13255 TIP3     1645     TIP3     H2       HT       0.417000       1.00800           0
     13256 TIP3     1646     TIP3     OH2      OT      -0.834000       15.9994           0
     13257 TIP3     1646     TIP3     H1       HT       0.417000       1.00800           0
     13258 TIP3     1646     TIP3     H2       HT       0.417000       1.00800           0
     13259 TIP3     1647     TIP3     OH2      OT      -0.834000       15.9994           0
     13260 TIP3     1647     TIP3     H1       HT       0.417000       1.00800           0
     13261 TIP3     1647     TIP3     H2       HT       0.417000       1.00800           0
     13262 TIP3     1648     TIP3     OH2      OT      -0.834000       15.9994           0
     13263 TIP3     1648     TIP3     H1       HT       0.417000       1.00800           0
     13264 TIP3     1648     TIP3     H2       HT       0.417000       1.00800           0
     13265 TIP3     1649     TIP3     OH2      OT      -0.834000       15.9994           0
     13266 TIP3     1649     TIP3     H1       HT       0.417000       1.00800           0
     13267 TIP3     1649     TIP3     H2       HT       0.417000       1.00800           0
     13268 TIP3     1650     TIP3     OH2      OT      -0.834000       15.9994           0
     13269 TIP3     1650     TIP3     H1       HT       0.417000       1.00800           0
     13270 TIP3     1650     TIP3     H2       HT       0.417000       1.00800           0
     13271 TIP3     1651     TIP3     OH2      OT      -0.834000       15.9994           0
     13272 TIP3     1651     TIP3     H1       HT       0.417000       1.00800           0
     13273 TIP3     1651     TIP3     H2       HT       0.417000       1.00800           0
     13274 TIP3     1652     TIP3     OH2      OT      -0.834000       15.9994           0
     13275 TIP3     1652     TIP3     H1       HT       0.417000       1.00800           0
     13276 TIP3     1652     TIP3     H2       HT       0.417000       1.00800           0
     13277 TIP3     1653     TIP3     OH2      OT      -0.834000       15.9994           0
     13278 TIP3     1653     TIP3     H1       HT       0.417000       1.00800           0
     13279 TIP3     1653     TIP3     H2       HT       0.417000       1.00800           0
     13280 TIP3     1654     TIP3     OH2      OT      -0.834000       15.9994           0
     13281 TIP3     1654     TIP3     H1       HT       0.417000       1.00800           0
     13282 TIP3     1654     TIP3     H2       HT       0.417000       1.00800           0
     13283 TIP3     1655     TIP3     OH2      OT      -0.834000       15.9994           0
     13284 TIP3     1655     TIP3     H1       HT       0.417000       1.00800           0
     13285 TIP3     1655     TIP3     H2       HT       0.417000       1.00800           0
     13286 TIP3     1656     TIP3     OH2      OT      -0.834000       15.9994           0
     13287 TIP3     1656     TIP3     H1       HT       0.417000       1.00800           0
     13288 TIP3     1656     TIP3     H2       HT       0.417000       1.00800           0
     13289 TIP3     1657     TIP3     OH2      OT      -0.834000       15.9994           0
     13290 TIP3     1657     TIP3     H1       HT       0.417000       1.00800           0
     13291 TIP3     1657     TIP3     H2       HT       0.417000       1.00800           0
     13292 TIP3     1658     TIP3     OH2      OT      -0.834000       15.9994           0
     13293 TIP3     1658     TIP3     H1       HT       0.417000       1.00800           0
     13294 TIP3     1658     TIP3     H2       HT       0.417000       1.00800           0
     13295 TIP3     1659     TIP3     OH2      OT      -0.834000       15.9994           0
     13296 TIP3     1659     TIP3     H1       HT       0.417000       1.00800           0
     13297 TIP3     1659     TIP3     H2       HT       0.417000       1.00800           0
     13298 TIP3     1660     TIP3     OH2      OT      -0.834000       15.9994           0
     13299 TIP3     1660     TIP3     H1       HT       0.417000       1.00800           0
     13300 TIP3     1660     TIP3     H2       HT       0.417000       1.00800           0
     13301 TIP3     1661     TIP3     OH2      OT      -0.834000       15.9994           0
     13302 TIP3     1661     TIP3     H1       HT       0.417000       1.00800           0
     13303 TIP3     1661     TIP3     H2       HT       0.417000       1.00800           0
     13304 TIP3     1662     TIP3     OH2      OT      -0.834000       15.9994           0
     13305 TIP3     1662     TIP3     H1       HT       0.417000       1.00800           0
     13306 TIP3     1662     TIP3     H2       HT       0.417000       1.00800           0
     13307 TIP3     1663     TIP3     OH2      OT      -0.834000       15.9994           0
     13308 TIP3     1663     TIP3     H1       HT       0.417000       1.00800           0
     13309 TIP3     1663     TIP3     H2       HT       0.417000       1.00800           0
     13310 TIP3     1664     TIP3     OH2      OT      -0.834000       15.9994           0
     13311 TIP3     1664     TIP3     H1       HT       0.417000       1.00800           0
     13312 TIP3     1664     TIP3     H2       HT       0.417000       1.00800           0
     13313 TIP3     1665     TIP3     OH2      OT      -0.834000       15.9994           0
     13314 TIP3     1665     TIP3     H1       HT       0.417000       1.00800           0
     13315 TIP3     1665     TIP3     H2       HT       0.417000       1.00800           0
     13316 TIP3     1666     TIP3     OH2      OT      -0.834000       15.9994           0
     13317 TIP3     1666     TIP3     H1       HT       0.417000       1.00800           0
     13318 TIP3     1666     TIP3     H2       HT       0.417000       1.00800           0
     13319 TIP3     1667     TIP3     OH2      OT      -0.834000       15.9994           0
     13320 TIP3     1667     TIP3     H1       HT       0.417000       1.00800           0
     13321 TIP3     1667     TIP3     H2       HT       0.417000       1.00800           0
     13322 TIP3     1668     TIP3     OH2      OT      -0.834000       15.9994           0
     13323 TIP3     1668     TIP3     H1       HT       0.417000       1.00800           0
     13324 TIP3     1668     TIP3     H2       HT       0.417000       1.00800           0
     13325 TIP3     1669     TIP3     OH2      OT      -0.834000       15.9994           0
     13326 TIP3     1669     TIP3     H1       HT       0.417000       1.00800           0
     13327 TIP3     1669     TIP3     H2       HT       0.417000       1.00800           0
     13328 TIP3     1670     TIP3     OH2      OT      -0.834000       15.9994           0
     13329 TIP3     1670     TIP3     H1       HT       0.417000       1.00800           0
     13330 TIP3     1670     TIP3     H2       HT       0.417000       1.00800           0
     13331 TIP3     1671     TIP3     OH2      OT      -0.834000       15.9994           0
     13332 TIP3     1671     TIP3     H1       HT       0.417000       1.00800           0
     13333 TIP3     1671     TIP3     H2       HT       0.417000       1.00800           0
     13334 TIP3     1672     TIP3     OH2      OT      -0.834000       15.9994           0
     13335 TIP3     1672     TIP3     H1       HT       0.417000       1.00800           0
     13336 TIP3     1672     TIP3     H2       HT       0.417000       1.00800           0
     13337 TIP3     1673     TIP3     OH2      OT      -0.834000       15.9994           0
     13338 TIP3     1673     TIP3     H1       HT       0.417000       1.00800           0
     13339 TIP3     1673     TIP3     H2       HT       0.417000       1.00800           0
     13340 TIP3     1674     TIP3     OH2      OT      -0.834000       15.9994           0
     13341 TIP3     1674     TIP3     H1       HT       0.417000       1.00800           0
     13342 TIP3     1674     TIP3     H2       HT       0.417000       1.00800           0
     13343 TIP3     1675     TIP3     OH2      OT      -0.834000       15.9994           0
     13344 TIP3     1675     TIP3     H1       HT       0.417000       1.00800           0
     13345 TIP3     1675     TIP3     H2       HT       0.417000       1.00800           0
     13346 TIP3     1676     TIP3     OH2      OT      -0.834000       15.9994           0
     13347 TIP3     1676     TIP3     H1       HT       0.417000       1.00800           0
     13348 TIP3     1676     TIP3     H2       HT       0.417000       1.00800           0
     13349 TIP3     1677     TIP3     OH2      OT      -0.834000       15.9994           0
     13350 TIP3     1677     TIP3     H1       HT       0.417000       1.00800           0
     13351 TIP3     1677     TIP3     H2       HT       0.417000       1.00800           0
     13352 TIP3     1678     TIP3     OH2      OT      -0.834000       15.9994           0
     13353 TIP3     1678     TIP3     H1       HT       0.417000       1.00800           0
     13354 TIP3     1678     TIP3     H2       HT       0.417000       1.00800           0
     13355 TIP3     1679     TIP3     OH2      OT      -0.834000       15.9994           0
     13356 TIP3     1679     TIP3     H1       HT       0.417000       1.00800           0
     13357 TIP3     1679     TIP3     H2       HT       0.417000       1.00800           0
     13358 TIP3     1680     TIP3     OH2      OT      -0.834000       15.9994           0
     13359 TIP3     1680     TIP3     H1       HT       0.417000       1.00800           0
     13360 TIP3     1680     TIP3     H2       HT       0.417000       1.00800           0
     13361 TIP3     1681     TIP3     OH2      OT      -0.834000       15.9994           0
     13362 TIP3     1681     TIP3     H1       HT       0.417000       1.00800           0
     13363 TIP3     1681     TIP3     H2       HT       0.417000       1.00800           0
     13364 TIP3     1682     TIP3     OH2      OT      -0.834000       15.9994           0
     13365 TIP3     1682     TIP3     H1       HT       0.417000       1.00800           0
     13366 TIP3     1682     TIP3     H2       HT       0.417000       1.00800           0
     13367 TIP3     1683     TIP3     OH2      OT      -0.834000       15.9994           0
     13368 TIP3     1683     TIP3     H1       HT       0.417000       1.00800           0
     13369 TIP3     1683     TIP3     H2       HT       0.417000       1.00800           0
     13370 TIP3     1684     TIP3     OH2      OT      -0.834000       15.9994           0
     13371 TIP3     1684     TIP3     H1       HT       0.417000       1.00800           0
     13372 TIP3     1684     TIP3     H2       HT       0.417000       1.00800           0
     13373 TIP3     1685     TIP3     OH2      OT      -0.834000       15.9994           0
     13374 TIP3     1685     TIP3     H1       HT       0.417000       1.00800           0
     13375 TIP3     1685     TIP3     H2       HT       0.417000       1.00800           0
     13376 TIP3     1686     TIP3     OH2      OT      -0.834000       15.9994           0
     13377 TIP3     1686     TIP3     H1       HT       0.417000       1.00800           0
     13378 TIP3     1686     TIP3     H2       HT       0.417000       1.00800           0
     13379 TIP3     1687     TIP3     OH2      OT      -0.834000       15.9994           0
     13380 TIP3     1687     TIP3     H1       HT       0.417000       1.00800           0
     13381 TIP3     1687     TIP3     H2       HT       0.417000       1.00800           0
     13382 TIP3     1688     TIP3     OH2      OT      -0.834000       15.9994           0
     13383 TIP3     1688     TIP3     H1       HT       0.417000       1.00800           0
     13384 TIP3     1688     TIP3     H2       HT       0.417000       1.00800           0
     13385 TIP3     1689     TIP3     OH2      OT      -0.834000       15.9994           0
     13386 TIP3     1689     TIP3     H1       HT       0.417000       1.00800           0
     13387 TIP3     1689     TIP3     H2       HT       0.417000       1.00800           0
     13388 TIP3     1690     TIP3     OH2      OT      -0.834000       15.9994           0
     13389 TIP3     1690     TIP3     H1       HT       0.417000       1.00800           0
     13390 TIP3     1690     TIP3     H2       HT       0.417000       1.00800           0
     13391 TIP3     1691     TIP3     OH2      OT      -0.834000       15.9994           0
     13392 TIP3     1691     TIP3     H1       HT       0.417000       1.00800           0
     13393 TIP3     1691     TIP3     H2       HT       0.417000       1.00800           0
     13394 TIP3     1692     TIP3     OH2      OT      -0.834000       15.9994           0
     13395 TIP3     1692     TIP3     H1       HT       0.417000       1.00800           0
     13396 TIP3     1692     TIP3     H2       HT       0.417000       1.00800           0
     13397 TIP3     1693     TIP3     OH2      OT      -0.834000       15.9994           0
     13398 TIP3     1693     TIP3     H1       HT       0.417000       1.00800           0
     13399 TIP3     1693     TIP3     H2       HT       0.417000       1.00800           0
     13400 TIP3     1694     TIP3     OH2      OT      -0.834000       15.9994           0
     13401 TIP3     1694     TIP3     H1       HT       0.417000       1.00800           0
     13402 TIP3     1694     TIP3     H2       HT       0.417000       1.00800           0
     13403 TIP3     1695     TIP3     OH2      OT      -0.834000       15.9994           0
     13404 TIP3     1695     TIP3     H1       HT       0.417000       1.00800           0
     13405 TIP3     1695     TIP3     H2       HT       0.417000       1.00800           0
     13406 TIP3     1696     TIP3     OH2      OT      -0.834000       15.9994           0
     13407 TIP3     1696     TIP3     H1       HT       0.417000       1.00800           0
     13408 TIP3     1696     TIP3     H2       HT       0.417000       1.00800           0
     13409 TIP3     1697     TIP3     OH2      OT      -0.834000       15.9994           0
     13410 TIP3     1697     TIP3     H1       HT       0.417000       1.00800           0
     13411 TIP3     1697     TIP3     H2       HT       0.417000       1.00800           0
     13412 TIP3     1698     TIP3     OH2      OT      -0.834000       15.9994           0
     13413 TIP3     1698     TIP3     H1       HT       0.417000       1.00800           0
     13414 TIP3     1698     TIP3     H2       HT       0.417000       1.00800           0
     13415 TIP3     1699     TIP3     OH2      OT      -0.834000       15.9994           0
     13416 TIP3     1699     TIP3     H1       HT       0.417000       1.00800           0
     13417 TIP3     1699     TIP3     H2       HT       0.417000       1.00800           0
     13418 TIP3     1700     TIP3     OH2      OT      -0.834000       15.9994           0
     13419 TIP3     1700     TIP3     H1       HT       0.417000       1.00800           0
     13420 TIP3     1700     TIP3     H2       HT       0.417000       1.00800           0
     13421 TIP3     1701     TIP3     OH2      OT      -0.834000       15.9994           0
     13422 TIP3     1701     TIP3     H1       HT       0.417000       1.00800           0
     13423 TIP3     1701     TIP3     H2       HT       0.417000       1.00800           0
     13424 TIP3     1702     TIP3     OH2      OT      -0.834000       15.9994           0
     13425 TIP3     1702     TIP3     H1       HT       0.417000       1.00800           0
     13426 TIP3     1702     TIP3     H2       HT       0.417000       1.00800           0
     13427 TIP3     1703     TIP3     OH2      OT      -0.834000       15.9994           0
     13428 TIP3     1703     TIP3     H1       HT       0.417000       1.00800           0
     13429 TIP3     1703     TIP3     H2       HT       0.417000       1.00800           0
     13430 TIP3     1704     TIP3     OH2      OT      -0.834000       15.9994           0
     13431 TIP3     1704     TIP3     H1       HT       0.417000       1.00800           0
     13432 TIP3     1704     TIP3     H2       HT       0.417000       1.00800           0
     13433 TIP3     1705     TIP3     OH2      OT      -0.834000       15.9994           0
     13434 TIP3     1705     TIP3     H1       HT       0.417000       1.00800           0
     13435 TIP3     1705     TIP3     H2       HT       0.417000       1.00800           0
     13436 TIP3     1706     TIP3     OH2      OT      -0.834000       15.9994           0
     13437 TIP3     1706     TIP3     H1       HT       0.417000       1.00800           0
     13438 TIP3     1706     TIP3     H2       HT       0.417000       1.00800           0
     13439 TIP3     1707     TIP3     OH2      OT      -0.834000       15.9994           0
     13440 TIP3     1707     TIP3     H1       HT       0.417000       1.00800           0
     13441 TIP3     1707     TIP3     H2       HT       0.417000       1.00800           0
     13442 TIP3     1708     TIP3     OH2      OT      -0.834000       15.9994           0
     13443 TIP3     1708     TIP3     H1       HT       0.417000       1.00800           0
     13444 TIP3     1708     TIP3     H2       HT       0.417000       1.00800           0
     13445 TIP3     1709     TIP3     OH2      OT      -0.834000       15.9994           0
     13446 TIP3     1709     TIP3     H1       HT       0.417000       1.00800           0
     13447 TIP3     1709     TIP3     H2       HT       0.417000       1.00800           0
     13448 TIP3     1710     TIP3     OH2      OT      -0.834000       15.9994           0
     13449 TIP3     1710     TIP3     H1       HT       0.417000       1.00800           0
     13450 TIP3     1710     TIP3     H2       HT       0.417000       1.00800           0
     13451 TIP3     1711     TIP3     OH2      OT      -0.834000       15.9994           0
     13452 TIP3     1711     TIP3     H1       HT       0.417000       1.00800           0
     13453 TIP3     1711     TIP3     H2       HT       0.417000       1.00800           0
     13454 TIP3     1712     TIP3     OH2      OT      -0.834000       15.9994           0
     13455 TIP3     1712     TIP3     H1       HT       0.417000       1.00800           0
     13456 TIP3     1712     TIP3     H2       HT       0.417000       1.00800           0
     13457 TIP3     1713     TIP3     OH2      OT      -0.834000       15.9994           0
     13458 TIP3     1713     TIP3     H1       HT       0.417000       1.00800           0
     13459 TIP3     1713     TIP3     H2       HT       0.417000       1.00800           0
     13460 TIP3     1714     TIP3     OH2      OT      -0.834000       15.9994           0
     13461 TIP3     1714     TIP3     H1       HT       0.417000       1.00800           0
     13462 TIP3     1714     TIP3     H2       HT       0.417000       1.00800           0
     13463 TIP3     1715     TIP3     OH2      OT      -0.834000       15.9994           0
     13464 TIP3     1715     TIP3     H1       HT       0.417000       1.00800           0
     13465 TIP3     1715     TIP3     H2       HT       0.417000       1.00800           0
     13466 TIP3     1716     TIP3     OH2      OT      -0.834000       15.9994           0
     13467 TIP3     1716     TIP3     H1       HT       0.417000       1.00800           0
     13468 TIP3     1716     TIP3     H2       HT       0.417000       1.00800           0
     13469 TIP3     1717     TIP3     OH2      OT      -0.834000       15.9994           0
     13470 TIP3     1717     TIP3     H1       HT       0.417000       1.00800           0
     13471 TIP3     1717     TIP3     H2       HT       0.417000       1.00800           0
     13472 TIP3     1718     TIP3     OH2      OT      -0.834000       15.9994           0
     13473 TIP3     1718     TIP3     H1       HT       0.417000       1.00800           0
     13474 TIP3     1718     TIP3     H2       HT       0.417000       1.00800           0
     13475 TIP3     1719     TIP3     OH2      OT      -0.834000       15.9994           0
     13476 TIP3     1719     TIP3     H1       HT       0.417000       1.00800           0
     13477 TIP3     1719     TIP3     H2       HT       0.417000       1.00800           0
     13478 TIP3     1720     TIP3     OH2      OT      -0.834000       15.9994           0
     13479 TIP3     1720     TIP3     H1       HT       0.417000       1.00800           0
     13480 TIP3     1720     TIP3     H2       HT       0.417000       1.00800           0
     13481 TIP3     1721     TIP3     OH2      OT      -0.834000       15.9994           0
     13482 TIP3     1721     TIP3     H1       HT       0.417000       1.00800           0
     13483 TIP3     1721     TIP3     H2       HT       0.417000       1.00800           0
     13484 TIP3     1722     TIP3     OH2      OT      -0.834000       15.9994           0
     13485 TIP3     1722     TIP3     H1       HT       0.417000       1.00800           0
     13486 TIP3     1722     TIP3     H2       HT       0.417000       1.00800           0
     13487 TIP3     1723     TIP3     OH2      OT      -0.834000       15.9994           0
     13488 TIP3     1723     TIP3     H1       HT       0.417000       1.00800           0
     13489 TIP3     1723     TIP3     H2       HT       0.417000       1.00800           0
     13490 TIP3     1724     TIP3     OH2      OT      -0.834000       15.9994           0
     13491 TIP3     1724     TIP3     H1       HT       0.417000       1.00800           0
     13492 TIP3     1724     TIP3     H2       HT       0.417000       1.00800           0
     13493 TIP3     1725     TIP3     OH2      OT      -0.834000       15.9994           0
     13494 TIP3     1725     TIP3     H1       HT       0.417000       1.00800           0
     13495 TIP3     1725     TIP3     H2       HT       0.417000       1.00800           0
     13496 TIP3     1726     TIP3     OH2      OT      -0.834000       15.9994           0
     13497 TIP3     1726     TIP3     H1       HT       0.417000       1.00800           0
     13498 TIP3     1726     TIP3     H2       HT       0.417000       1.00800           0
     13499 TIP3     1727     TIP3     OH2      OT      -0.834000       15.9994           0
     13500 TIP3     1727     TIP3     H1       HT       0.417000       1.00800           0
     13501 TIP3     1727     TIP3     H2       HT       0.417000       1.00800           0
     13502 TIP3     1728     TIP3     OH2      OT      -0.834000       15.9994           0
     13503 TIP3     1728     TIP3     H1       HT       0.417000       1.00800           0
     13504 TIP3     1728     TIP3     H2       HT       0.417000       1.00800           0
     13505 TIP3     1729     TIP3     OH2      OT      -0.834000       15.9994           0
     13506 TIP3     1729     TIP3     H1       HT       0.417000       1.00800           0
     13507 TIP3     1729     TIP3     H2       HT       0.417000       1.00800           0
     13508 TIP3     1730     TIP3     OH2      OT      -0.834000       15.9994           0
     13509 TIP3     1730     TIP3     H1       HT       0.417000       1.00800           0
     13510 TIP3     1730     TIP3     H2       HT       0.417000       1.00800           0
     13511 TIP3     1731     TIP3     OH2      OT      -0.834000       15.9994           0
     13512 TIP3     1731     TIP3     H1       HT       0.417000       1.00800           0
     13513 TIP3     1731     TIP3     H2       HT       0.417000       1.00800           0
     13514 TIP3     1732     TIP3     OH2      OT      -0.834000       15.9994           0
     13515 TIP3     1732     TIP3     H1       HT       0.417000       1.00800           0
     13516 TIP3     1732     TIP3     H2       HT       0.417000       1.00800           0
     13517 TIP3     1733     TIP3     OH2      OT      -0.834000       15.9994           0
     13518 TIP3     1733     TIP3     H1       HT       0.417000       1.00800           0
     13519 TIP3     1733     TIP3     H2       HT       0.417000       1.00800           0
     13520 TIP3     1734     TIP3     OH2      OT      -0.834000       15.9994           0
     13521 TIP3     1734     TIP3     H1       HT       0.417000       1.00800           0
     13522 TIP3     1734     TIP3     H2       HT       0.417000       1.00800           0
     13523 TIP3     1735     TIP3     OH2      OT      -0.834000       15.9994           0
     13524 TIP3     1735     TIP3     H1       HT       0.417000       1.00800           0
     13525 TIP3     1735     TIP3     H2       HT       0.417000       1.00800           0
     13526 TIP3     1736     TIP3     OH2      OT      -0.834000       15.9994           0
     13527 TIP3     1736     TIP3     H1       HT       0.417000       1.00800           0
     13528 TIP3     1736     TIP3     H2       HT       0.417000       1.00800           0
     13529 TIP3     1737     TIP3     OH2      OT      -0.834000       15.9994           0
     13530 TIP3     1737     TIP3     H1       HT       0.417000       1.00800           0
     13531 TIP3     1737     TIP3     H2       HT       0.417000       1.00800           0
     13532 TIP3     1738     TIP3     OH2      OT      -0.834000       15.9994           0
     13533 TIP3     1738     TIP3     H1       HT       0.417000       1.00800           0
     13534 TIP3     1738     TIP3     H2       HT       0.417000       1.00800           0
     13535 TIP3     1739     TIP3     OH2      OT      -0.834000       15.9994           0
     13536 TIP3     1739     TIP3     H1       HT       0.417000       1.00800           0
     13537 TIP3     1739     TIP3     H2       HT       0.417000       1.00800           0
     13538 TIP3     1740     TIP3     OH2      OT      -0.834000       15.9994           0
     13539 TIP3     1740     TIP3     H1       HT       0.417000       1.00800           0
     13540 TIP3     1740     TIP3     H2       HT       0.417000       1.00800           0
     13541 TIP3     1741     TIP3     OH2      OT      -0.834000       15.9994           0
     13542 TIP3     1741     TIP3     H1       HT       0.417000       1.00800           0
     13543 TIP3     1741     TIP3     H2       HT       0.417000       1.00800           0
     13544 TIP3     1742     TIP3     OH2      OT      -0.834000       15.9994           0
     13545 TIP3     1742     TIP3     H1       HT       0.417000       1.00800           0
     13546 TIP3     1742     TIP3     H2       HT       0.417000       1.00800           0
     13547 TIP3     1743     TIP3     OH2      OT      -0.834000       15.9994           0
     13548 TIP3     1743     TIP3     H1       HT       0.417000       1.00800           0
     13549 TIP3     1743     TIP3     H2       HT       0.417000       1.00800           0
     13550 TIP3     1744     TIP3     OH2      OT      -0.834000       15.9994           0
     13551 TIP3     1744     TIP3     H1       HT       0.417000       1.00800           0
     13552 TIP3     1744     TIP3     H2       HT       0.417000       1.00800           0
     13553 TIP3     1745     TIP3     OH2      OT      -0.834000       15.9994           0
     13554 TIP3     1745     TIP3     H1       HT       0.417000       1.00800           0
     13555 TIP3     1745     TIP3     H2       HT       0.417000       1.00800           0
     13556 TIP3     1746     TIP3     OH2      OT      -0.834000       15.9994           0
     13557 TIP3     1746     TIP3     H1       HT       0.417000       1.00800           0
     13558 TIP3     1746     TIP3     H2       HT       0.417000       1.00800           0
     13559 TIP3     1747     TIP3     OH2      OT      -0.834000       15.9994           0
     13560 TIP3     1747     TIP3     H1       HT       0.417000       1.00800           0
     13561 TIP3     1747     TIP3     H2       HT       0.417000       1.00800           0
     13562 TIP3     1748     TIP3     OH2      OT      -0.834000       15.9994           0
     13563 TIP3     1748     TIP3     H1       HT       0.417000       1.00800           0
     13564 TIP3     1748     TIP3     H2       HT       0.417000       1.00800           0
     13565 TIP3     1749     TIP3     OH2      OT      -0.834000       15.9994           0
     13566 TIP3     1749     TIP3     H1       HT       0.417000       1.00800           0
     13567 TIP3     1749     TIP3     H2       HT       0.417000       1.00800           0
     13568 TIP3     1750     TIP3     OH2      OT      -0.834000       15.9994           0
     13569 TIP3     1750     TIP3     H1       HT       0.417000       1.00800           0
     13570 TIP3     1750     TIP3     H2       HT       0.417000       1.00800           0
     13571 TIP3     1751     TIP3     OH2      OT      -0.834000       15.9994           0
     13572 TIP3     1751     TIP3     H1       HT       0.417000       1.00800           0
     13573 TIP3     1751     TIP3     H2       HT       0.417000       1.00800           0
     13574 TIP3     1752     TIP3     OH2      OT      -0.834000       15.9994           0
     13575 TIP3     1752     TIP3     H1       HT       0.417000       1.00800           0
     13576 TIP3     1752     TIP3     H2       HT       0.417000       1.00800           0
     13577 TIP3     1753     TIP3     OH2      OT      -0.834000       15.9994           0
     13578 TIP3     1753     TIP3     H1       HT       0.417000       1.00800           0
     13579 TIP3     1753     TIP3     H2       HT       0.417000       1.00800           0
     13580 TIP3     1754     TIP3     OH2      OT      -0.834000       15.9994           0
     13581 TIP3     1754     TIP3     H1       HT       0.417000       1.00800           0
     13582 TIP3     1754     TIP3     H2       HT       0.417000       1.00800           0
     13583 TIP3     1755     TIP3     OH2      OT      -0.834000       15.9994           0
     13584 TIP3     1755     TIP3     H1       HT       0.417000       1.00800           0
     13585 TIP3     1755     TIP3     H2       HT       0.417000       1.00800           0
     13586 TIP3     1756     TIP3     OH2      OT      -0.834000       15.9994           0
     13587 TIP3     1756     TIP3     H1       HT       0.417000       1.00800           0
     13588 TIP3     1756     TIP3     H2       HT       0.417000       1.00800           0
     13589 TIP3     1757     TIP3     OH2      OT      -0.834000       15.9994           0
     13590 TIP3     1757     TIP3     H1       HT       0.417000       1.00800           0
     13591 TIP3     1757     TIP3     H2       HT       0.417000       1.00800           0
     13592 TIP3     1758     TIP3     OH2      OT      -0.834000       15.9994           0
     13593 TIP3     1758     TIP3     H1       HT       0.417000       1.00800           0
     13594 TIP3     1758     TIP3     H2       HT       0.417000       1.00800           0
     13595 TIP3     1759     TIP3     OH2      OT      -0.834000       15.9994           0
     13596 TIP3     1759     TIP3     H1       HT       0.417000       1.00800           0
     13597 TIP3     1759     TIP3     H2       HT       0.417000       1.00800           0
     13598 TIP3     1760     TIP3     OH2      OT      -0.834000       15.9994           0
     13599 TIP3     1760     TIP3     H1       HT       0.417000       1.00800           0
     13600 TIP3     1760     TIP3     H2       HT       0.417000       1.00800           0
     13601 TIP3     1761     TIP3     OH2      OT      -0.834000       15.9994           0
     13602 TIP3     1761     TIP3     H1       HT       0.417000       1.00800           0
     13603 TIP3     1761     TIP3     H2       HT       0.417000       1.00800           0
     13604 TIP3     1762     TIP3     OH2      OT      -0.834000       15.9994           0
     13605 TIP3     1762     TIP3     H1       HT       0.417000       1.00800           0
     13606 TIP3     1762     TIP3     H2       HT       0.417000       1.00800           0
     13607 TIP3     1763     TIP3     OH2      OT      -0.834000       15.9994           0
     13608 TIP3     1763     TIP3     H1       HT       0.417000       1.00800           0
     13609 TIP3     1763     TIP3     H2       HT       0.417000       1.00800           0
     13610 TIP3     1764     TIP3     OH2      OT      -0.834000       15.9994           0
     13611 TIP3     1764     TIP3     H1       HT       0.417000       1.00800           0
     13612 TIP3     1764     TIP3     H2       HT       0.417000       1.00800           0
     13613 TIP3     1765     TIP3     OH2      OT      -0.834000       15.9994           0
     13614 TIP3     1765     TIP3     H1       HT       0.417000       1.00800           0
     13615 TIP3     1765     TIP3     H2       HT       0.417000       1.00800           0
     13616 TIP3     1766     TIP3     OH2      OT      -0.834000       15.9994           0
     13617 TIP3     1766     TIP3     H1       HT       0.417000       1.00800           0
     13618 TIP3     1766     TIP3     H2       HT       0.417000       1.00800           0
     13619 TIP3     1767     TIP3     OH2      OT      -0.834000       15.9994           0
     13620 TIP3     1767     TIP3     H1       HT       0.417000       1.00800           0
     13621 TIP3     1767     TIP3     H2       HT       0.417000       1.00800           0
     13622 TIP3     1768     TIP3     OH2      OT      -0.834000       15.9994           0
     13623 TIP3     1768     TIP3     H1       HT       0.417000       1.00800           0
     13624 TIP3     1768     TIP3     H2       HT       0.417000       1.00800           0
     13625 TIP3     1769     TIP3     OH2      OT      -0.834000       15.9994           0
     13626 TIP3     1769     TIP3     H1       HT       0.417000       1.00800           0
     13627 TIP3     1769     TIP3     H2       HT       0.417000       1.00800           0
     13628 TIP3     1770     TIP3     OH2      OT      -0.834000       15.9994           0
     13629 TIP3     1770     TIP3     H1       HT       0.417000       1.00800           0
     13630 TIP3     1770     TIP3     H2       HT       0.417000       1.00800           0
     13631 TIP3     1771     TIP3     OH2      OT      -0.834000       15.9994           0
     13632 TIP3     1771     TIP3     H1       HT       0.417000       1.00800           0
     13633 TIP3     1771     TIP3     H2       HT       0.417000       1.00800           0
     13634 TIP3     1772     TIP3     OH2      OT      -0.834000       15.9994           0
     13635 TIP3     1772     TIP3     H1       HT       0.417000       1.00800           0
     13636 TIP3     1772     TIP3     H2       HT       0.417000       1.00800           0
     13637 TIP3     1773     TIP3     OH2      OT      -0.834000       15.9994           0
     13638 TIP3     1773     TIP3     H1       HT       0.417000       1.00800           0
     13639 TIP3     1773     TIP3     H2       HT       0.417000       1.00800           0
     13640 TIP3     1774     TIP3     OH2      OT      -0.834000       15.9994           0
     13641 TIP3     1774     TIP3     H1       HT       0.417000       1.00800           0
     13642 TIP3     1774     TIP3     H2       HT       0.417000       1.00800           0
     13643 TIP3     1775     TIP3     OH2      OT      -0.834000       15.9994           0
     13644 TIP3     1775     TIP3     H1       HT       0.417000       1.00800           0
     13645 TIP3     1775     TIP3     H2       HT       0.417000       1.00800           0
     13646 TIP3     1776     TIP3     OH2      OT      -0.834000       15.9994           0
     13647 TIP3     1776     TIP3     H1       HT       0.417000       1.00800           0
     13648 TIP3     1776     TIP3     H2       HT       0.417000       1.00800           0
     13649 TIP3     1777     TIP3     OH2      OT      -0.834000       15.9994           0
     13650 TIP3     1777     TIP3     H1       HT       0.417000       1.00800           0
     13651 TIP3     1777     TIP3     H2       HT       0.417000       1.00800           0
     13652 TIP3     1778     TIP3     OH2      OT      -0.834000       15.9994           0
     13653 TIP3     1778     TIP3     H1       HT       0.417000       1.00800           0
     13654 TIP3     1778     TIP3     H2       HT       0.417000       1.00800           0
     13655 TIP3     1779     TIP3     OH2      OT      -0.834000       15.9994           0
     13656 TIP3     1779     TIP3     H1       HT       0.417000       1.00800           0
     13657 TIP3     1779     TIP3     H2       HT       0.417000       1.00800           0
     13658 TIP3     1780     TIP3     OH2      OT      -0.834000       15.9994           0
     13659 TIP3     1780     TIP3     H1       HT       0.417000       1.00800           0
     13660 TIP3     1780     TIP3     H2       HT       0.417000       1.00800           0
     13661 TIP3     1781     TIP3     OH2      OT      -0.834000       15.9994           0
     13662 TIP3     1781     TIP3     H1       HT       0.417000       1.00800           0
     13663 TIP3     1781     TIP3     H2       HT       0.417000       1.00800           0
     13664 TIP3     1782     TIP3     OH2      OT      -0.834000       15.9994           0
     13665 TIP3     1782     TIP3     H1       HT       0.417000       1.00800           0
     13666 TIP3     1782     TIP3     H2       HT       0.417000       1.00800           0
     13667 TIP3     1783     TIP3     OH2      OT      -0.834000       15.9994           0
     13668 TIP3     1783     TIP3     H1       HT       0.417000       1.00800           0
     13669 TIP3     1783     TIP3     H2       HT       0.417000       1.00800           0
     13670 TIP3     1784     TIP3     OH2      OT      -0.834000       15.9994           0
     13671 TIP3     1784     TIP3     H1       HT       0.417000       1.00800           0
     13672 TIP3     1784     TIP3     H2       HT       0.417000       1.00800           0
     13673 TIP3     1785     TIP3     OH2      OT      -0.834000       15.9994           0
     13674 TIP3     1785     TIP3     H1       HT       0.417000       1.00800           0
     13675 TIP3     1785     TIP3     H2       HT       0.417000       1.00800           0
     13676 TIP3     1786     TIP3     OH2      OT      -0.834000       15.9994           0
     13677 TIP3     1786     TIP3     H1       HT       0.417000       1.00800           0
     13678 TIP3     1786     TIP3     H2       HT       0.417000       1.00800           0
     13679 TIP3     1787     TIP3     OH2      OT      -0.834000       15.9994           0
     13680 TIP3     1787     TIP3     H1       HT       0.417000       1.00800           0
     13681 TIP3     1787     TIP3     H2       HT       0.417000       1.00800           0
     13682 TIP3     1788     TIP3     OH2      OT      -0.834000       15.9994           0
     13683 TIP3     1788     TIP3     H1       HT       0.417000       1.00800           0
     13684 TIP3     1788     TIP3     H2       HT       0.417000       1.00800           0
     13685 TIP3     1789     TIP3     OH2      OT      -0.834000       15.9994           0
     13686 TIP3     1789     TIP3     H1       HT       0.417000       1.00800           0
     13687 TIP3     1789     TIP3     H2       HT       0.417000       1.00800           0
     13688 TIP3     1790     TIP3     OH2      OT      -0.834000       15.9994           0
     13689 TIP3     1790     TIP3     H1       HT       0.417000       1.00800           0
     13690 TIP3     1790     TIP3     H2       HT       0.417000       1.00800           0
     13691 TIP3     1791     TIP3     OH2      OT      -0.834000       15.9994           0
     13692 TIP3     1791     TIP3     H1       HT       0.417000       1.00800           0
     13693 TIP3     1791     TIP3     H2       HT       0.417000       1.00800           0
     13694 TIP3     1792     TIP3     OH2      OT      -0.834000       15.9994           0
     13695 TIP3     1792     TIP3     H1       HT       0.417000       1.00800           0
     13696 TIP3     1792     TIP3     H2       HT       0.417000       1.00800           0
     13697 TIP3     1793     TIP3     OH2      OT      -0.834000       15.9994           0
     13698 TIP3     1793     TIP3     H1       HT       0.417000       1.00800           0
     13699 TIP3     1793     TIP3     H2       HT       0.417000       1.00800           0
     13700 TIP3     1794     TIP3     OH2      OT      -0.834000       15.9994           0
     13701 TIP3     1794     TIP3     H1       HT       0.417000       1.00800           0
     13702 TIP3     1794     TIP3     H2       HT       0.417000       1.00800           0
     13703 TIP3     1795     TIP3     OH2      OT      -0.834000       15.9994           0
     13704 TIP3     1795     TIP3     H1       HT       0.417000       1.00800           0
     13705 TIP3     1795     TIP3     H2       HT       0.417000       1.00800           0
     13706 TIP3     1796     TIP3     OH2      OT      -0.834000       15.9994           0
     13707 TIP3     1796     TIP3     H1       HT       0.417000       1.00800           0
     13708 TIP3     1796     TIP3     H2       HT       0.417000       1.00800           0
     13709 TIP3     1797     TIP3     OH2      OT      -0.834000       15.9994           0
     13710 TIP3     1797     TIP3     H1       HT       0.417000       1.00800           0
     13711 TIP3     1797     TIP3     H2       HT       0.417000       1.00800           0
     13712 TIP3     1798     TIP3     OH2      OT      -0.834000       15.9994           0
     13713 TIP3     1798     TIP3     H1       HT       0.417000       1.00800           0
     13714 TIP3     1798     TIP3     H2       HT       0.417000       1.00800           0
     13715 TIP3     1799     TIP3     OH2      OT      -0.834000       15.9994           0
     13716 TIP3     1799     TIP3     H1       HT       0.417000       1.00800           0
     13717 TIP3     1799     TIP3     H2       HT       0.417000       1.00800           0
     13718 TIP3     1800     TIP3     OH2      OT      -0.834000       15.9994           0
     13719 TIP3     1800     TIP3     H1       HT       0.417000       1.00800           0
     13720 TIP3     1800     TIP3     H2       HT       0.417000       1.00800           0
     13721 TIP3     1801     TIP3     OH2      OT      -0.834000       15.9994           0
     13722 TIP3     1801     TIP3     H1       HT       0.417000       1.00800           0
     13723 TIP3     1801     TIP3     H2       HT       0.417000       1.00800           0
     13724 TIP3     1802     TIP3     OH2      OT      -0.834000       15.9994           0
     13725 TIP3     1802     TIP3     H1       HT       0.417000       1.00800           0
     13726 TIP3     1802     TIP3     H2       HT       0.417000       1.00800           0
     13727 TIP3     1803     TIP3     OH2      OT      -0.834000       15.9994           0
     13728 TIP3     1803     TIP3     H1       HT       0.417000       1.00800           0
     13729 TIP3     1803     TIP3     H2       HT       0.417000       1.00800           0
     13730 TIP3     1804     TIP3     OH2      OT      -0.834000       15.9994           0
     13731 TIP3     1804     TIP3     H1       HT       0.417000       1.00800           0
     13732 TIP3     1804     TIP3     H2       HT       0.417000       1.00800           0
     13733 TIP3     1805     TIP3     OH2      OT      -0.834000       15.9994           0
     13734 TIP3     1805     TIP3     H1       HT       0.417000       1.00800           0
     13735 TIP3     1805     TIP3     H2       HT       0.417000       1.00800           0
     13736 TIP3     1806     TIP3     OH2      OT      -0.834000       15.9994           0
     13737 TIP3     1806     TIP3     H1       HT       0.417000       1.00800           0
     13738 TIP3     1806     TIP3     H2       HT       0.417000       1.00800           0
     13739 TIP3     1807     TIP3     OH2      OT      -0.834000       15.9994           0
     13740 TIP3     1807     TIP3     H1       HT       0.417000       1.00800           0
     13741 TIP3     1807     TIP3     H2       HT       0.417000       1.00800           0
     13742 TIP3     1808     TIP3     OH2      OT      -0.834000       15.9994           0
     13743 TIP3     1808     TIP3     H1       HT       0.417000       1.00800           0
     13744 TIP3     1808     TIP3     H2       HT       0.417000       1.00800           0
     13745 TIP3     1809     TIP3     OH2      OT      -0.834000       15.9994           0
     13746 TIP3     1809     TIP3     H1       HT       0.417000       1.00800           0
     13747 TIP3     1809     TIP3     H2       HT       0.417000       1.00800           0
     13748 TIP3     1810     TIP3     OH2      OT      -0.834000       15.9994           0
     13749 TIP3     1810     TIP3     H1       HT       0.417000       1.00800           0
     13750 TIP3     1810     TIP3     H2       HT       0.417000       1.00800           0
     13751 TIP3     1811     TIP3     OH2      OT      -0.834000       15.9994           0
     13752 TIP3     1811     TIP3     H1       HT       0.417000       1.00800           0
     13753 TIP3     1811     TIP3     H2       HT       0.417000       1.00800           0
     13754 TIP3     1812     TIP3     OH2      OT      -0.834000       15.9994           0
     13755 TIP3     1812     TIP3     H1       HT       0.417000       1.00800           0
     13756 TIP3     1812     TIP3     H2       HT       0.417000       1.00800           0
     13757 TIP3     1813     TIP3     OH2      OT      -0.834000       15.9994           0
     13758 TIP3     1813     TIP3     H1       HT       0.417000       1.00800           0
     13759 TIP3     1813     TIP3     H2       HT       0.417000       1.00800           0
     13760 TIP3     1814     TIP3     OH2      OT      -0.834000       15.9994           0
     13761 TIP3     1814     TIP3     H1       HT       0.417000       1.00800           0
     13762 TIP3     1814     TIP3     H2       HT       0.417000       1.00800           0
     13763 TIP3     1815     TIP3     OH2      OT      -0.834000       15.9994           0
     13764 TIP3     1815     TIP3     H1       HT       0.417000       1.00800           0
     13765 TIP3     1815     TIP3     H2       HT       0.417000       1.00800           0
     13766 TIP3     1816     TIP3     OH2      OT      -0.834000       15.9994           0
     13767 TIP3     1816     TIP3     H1       HT       0.417000       1.00800           0
     13768 TIP3     1816     TIP3     H2       HT       0.417000       1.00800           0
     13769 TIP3     1817     TIP3     OH2      OT      -0.834000       15.9994           0
     13770 TIP3     1817     TIP3     H1       HT       0.417000       1.00800           0
     13771 TIP3     1817     TIP3     H2       HT       0.417000       1.00800           0
     13772 TIP3     1818     TIP3     OH2      OT      -0.834000       15.9994           0
     13773 TIP3     1818     TIP3     H1       HT       0.417000       1.00800           0
     13774 TIP3     1818     TIP3     H2       HT       0.417000       1.00800           0
     13775 TIP3     1819     TIP3     OH2      OT      -0.834000       15.9994           0
     13776 TIP3     1819     TIP3     H1       HT       0.417000       1.00800           0
     13777 TIP3     1819     TIP3     H2       HT       0.417000       1.00800           0
     13778 TIP3     1820     TIP3     OH2      OT      -0.834000       15.9994           0
     13779 TIP3     1820     TIP3     H1       HT       0.417000       1.00800           0
     13780 TIP3     1820     TIP3     H2       HT       0.417000       1.00800           0
     13781 TIP3     1821     TIP3     OH2      OT      -0.834000       15.9994           0
     13782 TIP3     1821     TIP3     H1       HT       0.417000       1.00800           0
     13783 TIP3     1821     TIP3     H2       HT       0.417000       1.00800           0
     13784 TIP3     1822     TIP3     OH2      OT      -0.834000       15.9994           0
     13785 TIP3     1822     TIP3     H1       HT       0.417000       1.00800           0
     13786 TIP3     1822     TIP3     H2       HT       0.417000       1.00800           0
     13787 TIP3     1823     TIP3     OH2      OT      -0.834000       15.9994           0
     13788 TIP3     1823     TIP3     H1       HT       0.417000       1.00800           0
     13789 TIP3     1823     TIP3     H2       HT       0.417000       1.00800           0
     13790 TIP3     1824     TIP3     OH2      OT      -0.834000       15.9994           0
     13791 TIP3     1824     TIP3     H1       HT       0.417000       1.00800           0
     13792 TIP3     1824     TIP3     H2       HT       0.417000       1.00800           0
     13793 TIP3     1825     TIP3     OH2      OT      -0.834000       15.9994           0
     13794 TIP3     1825     TIP3     H1       HT       0.417000       1.00800           0
     13795 TIP3     1825     TIP3     H2       HT       0.417000       1.00800           0
     13796 TIP3     1826     TIP3     OH2      OT      -0.834000       15.9994           0
     13797 TIP3     1826     TIP3     H1       HT       0.417000       1.00800           0
     13798 TIP3     1826     TIP3     H2       HT       0.417000       1.00800           0
     13799 TIP3     1827     TIP3     OH2      OT      -0.834000       15.9994           0
     13800 TIP3     1827     TIP3     H1       HT       0.417000       1.00800           0
     13801 TIP3     1827     TIP3     H2       HT       0.417000       1.00800           0
     13802 TIP3     1828     TIP3     OH2      OT      -0.834000       15.9994           0
     13803 TIP3     1828     TIP3     H1       HT       0.417000       1.00800           0
     13804 TIP3     1828     TIP3     H2       HT       0.417000       1.00800           0
     13805 TIP3     1829     TIP3     OH2      OT      -0.834000       15.9994           0
     13806 TIP3     1829     TIP3     H1       HT       0.417000       1.00800           0
     13807 TIP3     1829     TIP3     H2       HT       0.417000       1.00800           0
     13808 TIP3     1830     TIP3     OH2      OT      -0.834000       15.9994           0
     13809 TIP3     1830     TIP3     H1       HT       0.417000       1.00800           0
     13810 TIP3     1830     TIP3     H2       HT       0.417000       1.00800           0
     13811 TIP3     1831     TIP3     OH2      OT      -0.834000       15.9994           0
     13812 TIP3     1831     TIP3     H1       HT       0.417000       1.00800           0
     13813 TIP3     1831     TIP3     H2       HT       0.417000       1.00800           0
     13814 TIP3     1832     TIP3     OH2      OT      -0.834000       15.9994           0
     13815 TIP3     1832     TIP3     H1       HT       0.417000       1.00800           0
     13816 TIP3     1832     TIP3     H2       HT       0.417000       1.00800           0
     13817 TIP3     1833     TIP3     OH2      OT      -0.834000       15.9994           0
     13818 TIP3     1833     TIP3     H1       HT       0.417000       1.00800           0
     13819 TIP3     1833     TIP3     H2       HT       0.417000       1.00800           0
     13820 TIP3     1834     TIP3     OH2      OT      -0.834000       15.9994           0
     13821 TIP3     1834     TIP3     H1       HT       0.417000       1.00800           0
     13822 TIP3     1834     TIP3     H2       HT       0.417000       1.00800           0
     13823 TIP3     1835     TIP3     OH2      OT      -0.834000       15.9994           0
     13824 TIP3     1835     TIP3     H1       HT       0.417000       1.00800           0
     13825 TIP3     1835     TIP3     H2       HT       0.417000       1.00800           0
     13826 TIP3     1836     TIP3     OH2      OT      -0.834000       15.9994           0
     13827 TIP3     1836     TIP3     H1       HT       0.417000       1.00800           0
     13828 TIP3     1836     TIP3     H2       HT       0.417000       1.00800           0
     13829 TIP3     1837     TIP3     OH2      OT      -0.834000       15.9994           0
     13830 TIP3     1837     TIP3     H1       HT       0.417000       1.00800           0
     13831 TIP3     1837     TIP3     H2       HT       0.417000       1.00800           0
     13832 TIP3     1838     TIP3     OH2      OT      -0.834000       15.9994           0
     13833 TIP3     1838     TIP3     H1       HT       0.417000       1.00800           0
     13834 TIP3     1838     TIP3     H2       HT       0.417000       1.00800           0
     13835 TIP3     1839     TIP3     OH2      OT      -0.834000       15.9994           0
     13836 TIP3     1839     TIP3     H1       HT       0.417000       1.00800           0
     13837 TIP3     1839     TIP3     H2       HT       0.417000       1.00800           0
     13838 TIP3     1840     TIP3     OH2      OT      -0.834000       15.9994           0
     13839 TIP3     1840     TIP3     H1       HT       0.417000       1.00800           0
     13840 TIP3     1840     TIP3     H2       HT       0.417000       1.00800           0
     13841 TIP3     1841     TIP3     OH2      OT      -0.834000       15.9994           0
     13842 TIP3     1841     TIP3     H1       HT       0.417000       1.00800           0
     13843 TIP3     1841     TIP3     H2       HT       0.417000       1.00800           0
     13844 TIP3     1842     TIP3     OH2      OT      -0.834000       15.9994           0
     13845 TIP3     1842     TIP3     H1       HT       0.417000       1.00800           0
     13846 TIP3     1842     TIP3     H2       HT       0.417000       1.00800           0
     13847 TIP3     1843     TIP3     OH2      OT      -0.834000       15.9994           0
     13848 TIP3     1843     TIP3     H1       HT       0.417000       1.00800           0
     13849 TIP3     1843     TIP3     H2       HT       0.417000       1.00800           0
     13850 TIP3     1844     TIP3     OH2      OT      -0.834000       15.9994           0
     13851 TIP3     1844     TIP3     H1       HT       0.417000       1.00800           0
     13852 TIP3     1844     TIP3     H2       HT       0.417000       1.00800           0
     13853 TIP3     1845     TIP3     OH2      OT      -0.834000       15.9994           0
     13854 TIP3     1845     TIP3     H1       HT       0.417000       1.00800           0
     13855 TIP3     1845     TIP3     H2       HT       0.417000       1.00800           0
     13856 TIP3     1846     TIP3     OH2      OT      -0.834000       15.9994           0
     13857 TIP3     1846     TIP3     H1       HT       0.417000       1.00800           0
     13858 TIP3     1846     TIP3     H2       HT       0.417000       1.00800           0
     13859 TIP3     1847     TIP3     OH2      OT      -0.834000       15.9994           0
     13860 TIP3     1847     TIP3     H1       HT       0.417000       1.00800           0
     13861 TIP3     1847     TIP3     H2       HT       0.417000       1.00800           0
     13862 TIP3     1848     TIP3     OH2      OT      -0.834000       15.9994           0
     13863 TIP3     1848     TIP3     H1       HT       0.417000       1.00800           0
     13864 TIP3     1848     TIP3     H2       HT       0.417000       1.00800           0
     13865 TIP3     1849     TIP3     OH2      OT      -0.834000       15.9994           0
     13866 TIP3     1849     TIP3     H1       HT       0.417000       1.00800           0
     13867 TIP3     1849     TIP3     H2       HT       0.417000       1.00800           0
     13868 TIP3     1850     TIP3     OH2      OT      -0.834000       15.9994           0
     13869 TIP3     1850     TIP3     H1       HT       0.417000       1.00800           0
     13870 TIP3     1850     TIP3     H2       HT       0.417000       1.00800           0
     13871 TIP3     1851     TIP3     OH2      OT      -0.834000       15.9994           0
     13872 TIP3     1851     TIP3     H1       HT       0.417000       1.00800           0
     13873 TIP3     1851     TIP3     H2       HT       0.417000       1.00800           0
     13874 TIP3     1852     TIP3     OH2      OT      -0.834000       15.9994           0
     13875 TIP3     1852     TIP3     H1       HT       0.417000       1.00800           0
     13876 TIP3     1852     TIP3     H2       HT       0.417000       1.00800           0
     13877 TIP3     1853     TIP3     OH2      OT      -0.834000       15.9994           0
     13878 TIP3     1853     TIP3     H1       HT       0.417000       1.00800           0
     13879 TIP3     1853     TIP3     H2       HT       0.417000       1.00800           0
     13880 TIP3     1854     TIP3     OH2      OT      -0.834000       15.9994           0
     13881 TIP3     1854     TIP3     H1       HT       0.417000       1.00800           0
     13882 TIP3     1854     TIP3     H2       HT       0.417000       1.00800           0
     13883 TIP3     1855     TIP3     OH2      OT      -0.834000       15.9994           0
     13884 TIP3     1855     TIP3     H1       HT       0.417000       1.00800           0
     13885 TIP3     1855     TIP3     H2       HT       0.417000       1.00800           0
     13886 TIP3     1856     TIP3     OH2      OT      -0.834000       15.9994           0
     13887 TIP3     1856     TIP3     H1       HT       0.417000       1.00800           0
     13888 TIP3     1856     TIP3     H2       HT       0.417000       1.00800           0
     13889 TIP3     1857     TIP3     OH2      OT      -0.834000       15.9994           0
     13890 TIP3     1857     TIP3     H1       HT       0.417000       1.00800           0
     13891 TIP3     1857     TIP3     H2       HT       0.417000       1.00800           0
     13892 TIP3     1858     TIP3     OH2      OT      -0.834000       15.9994           0
     13893 TIP3     1858     TIP3     H1       HT       0.417000       1.00800           0
     13894 TIP3     1858     TIP3     H2       HT       0.417000       1.00800           0
     13895 TIP3     1859     TIP3     OH2      OT      -0.834000       15.9994           0
     13896 TIP3     1859     TIP3     H1       HT       0.417000       1.00800           0
     13897 TIP3     1859     TIP3     H2       HT       0.417000       1.00800           0
     13898 TIP3     1860     TIP3     OH2      OT      -0.834000       15.9994           0
     13899 TIP3     1860     TIP3     H1       HT       0.417000       1.00800           0
     13900 TIP3     1860     TIP3     H2       HT       0.417000       1.00800           0
     13901 TIP3     1861     TIP3     OH2      OT      -0.834000       15.9994           0
     13902 TIP3     1861     TIP3     H1       HT       0.417000       1.00800           0
     13903 TIP3     1861     TIP3     H2       HT       0.417000       1.00800           0
     13904 TIP3     1862     TIP3     OH2      OT      -0.834000       15.9994           0
     13905 TIP3     1862     TIP3     H1       HT       0.417000       1.00800           0
     13906 TIP3     1862     TIP3     H2       HT       0.417000       1.00800           0
     13907 TIP3     1863     TIP3     OH2      OT      -0.834000       15.9994           0
     13908 TIP3     1863     TIP3     H1       HT       0.417000       1.00800           0
     13909 TIP3     1863     TIP3     H2       HT       0.417000       1.00800           0
     13910 TIP3     1864     TIP3     OH2      OT      -0.834000       15.9994           0
     13911 TIP3     1864     TIP3     H1       HT       0.417000       1.00800           0
     13912 TIP3     1864     TIP3     H2       HT       0.417000       1.00800           0
     13913 TIP3     1865     TIP3     OH2      OT      -0.834000       15.9994           0
     13914 TIP3     1865     TIP3     H1       HT       0.417000       1.00800           0
     13915 TIP3     1865     TIP3     H2       HT       0.417000       1.00800           0
     13916 TIP3     1866     TIP3     OH2      OT      -0.834000       15.9994           0
     13917 TIP3     1866     TIP3     H1       HT       0.417000       1.00800           0
     13918 TIP3     1866     TIP3     H2       HT       0.417000       1.00800           0
     13919 TIP3     1867     TIP3     OH2      OT      -0.834000       15.9994           0
     13920 TIP3     1867     TIP3     H1       HT       0.417000       1.00800           0
     13921 TIP3     1867     TIP3     H2       HT       0.417000       1.00800           0
     13922 TIP3     1868     TIP3     OH2      OT      -0.834000       15.9994           0
     13923 TIP3     1868     TIP3     H1       HT       0.417000       1.00800           0
     13924 TIP3     1868     TIP3     H2       HT       0.417000       1.00800           0
     13925 TIP3     1869     TIP3     OH2      OT      -0.834000       15.9994           0
     13926 TIP3     1869     TIP3     H1       HT       0.417000       1.00800           0
     13927 TIP3     1869     TIP3     H2       HT       0.417000       1.00800           0
     13928 TIP3     1870     TIP3     OH2      OT      -0.834000       15.9994           0
     13929 TIP3     1870     TIP3     H1       HT       0.417000       1.00800           0
     13930 TIP3     1870     TIP3     H2       HT       0.417000       1.00800           0
     13931 TIP3     1871     TIP3     OH2      OT      -0.834000       15.9994           0
     13932 TIP3     1871     TIP3     H1       HT       0.417000       1.00800           0
     13933 TIP3     1871     TIP3     H2       HT       0.417000       1.00800           0
     13934 TIP3     1872     TIP3     OH2      OT      -0.834000       15.9994           0
     13935 TIP3     1872     TIP3     H1       HT       0.417000       1.00800           0
     13936 TIP3     1872     TIP3     H2       HT       0.417000       1.00800           0
     13937 TIP3     1873     TIP3     OH2      OT      -0.834000       15.9994           0
     13938 TIP3     1873     TIP3     H1       HT       0.417000       1.00800           0
     13939 TIP3     1873     TIP3     H2       HT       0.417000       1.00800           0
     13940 TIP3     1874     TIP3     OH2      OT      -0.834000       15.9994           0
     13941 TIP3     1874     TIP3     H1       HT       0.417000       1.00800           0
     13942 TIP3     1874     TIP3     H2       HT       0.417000       1.00800           0
     13943 TIP3     1875     TIP3     OH2      OT      -0.834000       15.9994           0
     13944 TIP3     1875     TIP3     H1       HT       0.417000       1.00800           0
     13945 TIP3     1875     TIP3     H2       HT       0.417000       1.00800           0
     13946 TIP3     1876     TIP3     OH2      OT      -0.834000       15.9994           0
     13947 TIP3     1876     TIP3     H1       HT       0.417000       1.00800           0
     13948 TIP3     1876     TIP3     H2       HT       0.417000       1.00800           0
     13949 TIP3     1877     TIP3     OH2      OT      -0.834000       15.9994           0
     13950 TIP3     1877     TIP3     H1       HT       0.417000       1.00800           0
     13951 TIP3     1877     TIP3     H2       HT       0.417000       1.00800           0
     13952 TIP3     1878     TIP3     OH2      OT      -0.834000       15.9994           0
     13953 TIP3     1878     TIP3     H1       HT       0.417000       1.00800           0
     13954 TIP3     1878     TIP3     H2       HT       0.417000       1.00800           0
     13955 TIP3     1879     TIP3     OH2      OT      -0.834000       15.9994           0
     13956 TIP3     1879     TIP3     H1       HT       0.417000       1.00800           0
     13957 TIP3     1879     TIP3     H2       HT       0.417000       1.00800           0
     13958 TIP3     1880     TIP3     OH2      OT      -0.834000       15.9994           0
     13959 TIP3     1880     TIP3     H1       HT       0.417000       1.00800           0
     13960 TIP3     1880     TIP3     H2       HT       0.417000       1.00800           0
     13961 TIP3     1881     TIP3     OH2      OT      -0.834000       15.9994           0
     13962 TIP3     1881     TIP3     H1       HT       0.417000       1.00800           0
     13963 TIP3     1881     TIP3     H2       HT       0.417000       1.00800           0
     13964 TIP3     1882     TIP3     OH2      OT      -0.834000       15.9994           0
     13965 TIP3     1882     TIP3     H1       HT       0.417000       1.00800           0
     13966 TIP3     1882     TIP3     H2       HT       0.417000       1.00800           0
     13967 TIP3     1883     TIP3     OH2      OT      -0.834000       15.9994           0
     13968 TIP3     1883     TIP3     H1       HT       0.417000       1.00800           0
     13969 TIP3     1883     TIP3     H2       HT       0.417000       1.00800           0
     13970 TIP3     1884     TIP3     OH2      OT      -0.834000       15.9994           0
     13971 TIP3     1884     TIP3     H1       HT       0.417000       1.00800           0
     13972 TIP3     1884     TIP3     H2       HT       0.417000       1.00800           0
     13973 TIP3     1885     TIP3     OH2      OT      -0.834000       15.9994           0
     13974 TIP3     1885     TIP3     H1       HT       0.417000       1.00800           0
     13975 TIP3     1885     TIP3     H2       HT       0.417000       1.00800           0
     13976 TIP3     1886     TIP3     OH2      OT      -0.834000       15.9994           0
     13977 TIP3     1886     TIP3     H1       HT       0.417000       1.00800           0
     13978 TIP3     1886     TIP3     H2       HT       0.417000       1.00800           0
     13979 TIP3     1887     TIP3     OH2      OT      -0.834000       15.9994           0
     13980 TIP3     1887     TIP3     H1       HT       0.417000       1.00800           0
     13981 TIP3     1887     TIP3     H2       HT       0.417000       1.00800           0
     13982 TIP3     1888     TIP3     OH2      OT      -0.834000       15.9994           0
     13983 TIP3     1888     TIP3     H1       HT       0.417000       1.00800           0
     13984 TIP3     1888     TIP3     H2       HT       0.417000       1.00800           0
     13985 TIP3     1889     TIP3     OH2      OT      -0.834000       15.9994           0
     13986 TIP3     1889     TIP3     H1       HT       0.417000       1.00800           0
     13987 TIP3     1889     TIP3     H2       HT       0.417000       1.00800           0
     13988 TIP3     1890     TIP3     OH2      OT      -0.834000       15.9994           0
     13989 TIP3     1890     TIP3     H1       HT       0.417000       1.00800           0
     13990 TIP3     1890     TIP3     H2       HT       0.417000       1.00800           0
     13991 TIP3     1891     TIP3     OH2      OT      -0.834000       15.9994           0
     13992 TIP3     1891     TIP3     H1       HT       0.417000       1.00800           0
     13993 TIP3     1891     TIP3     H2       HT       0.417000       1.00800           0
     13994 TIP3     1892     TIP3     OH2      OT      -0.834000       15.9994           0
     13995 TIP3     1892     TIP3     H1       HT       0.417000       1.00800           0
     13996 TIP3     1892     TIP3     H2       HT       0.417000       1.00800           0
     13997 TIP3     1893     TIP3     OH2      OT      -0.834000       15.9994           0
     13998 TIP3     1893     TIP3     H1       HT       0.417000       1.00800           0
     13999 TIP3     1893     TIP3     H2       HT       0.417000       1.00800           0
     14000 TIP3     1894     TIP3     OH2      OT      -0.834000       15.9994           0
     14001 TIP3     1894     TIP3     H1       HT       0.417000       1.00800           0
     14002 TIP3     1894     TIP3     H2       HT       0.417000       1.00800           0
     14003 TIP3     1895     TIP3     OH2      OT      -0.834000       15.9994           0
     14004 TIP3     1895     TIP3     H1       HT       0.417000       1.00800           0
     14005 TIP3     1895     TIP3     H2       HT       0.417000       1.00800           0
     14006 TIP3     1896     TIP3     OH2      OT      -0.834000       15.9994           0
     14007 TIP3     1896     TIP3     H1       HT       0.417000       1.00800           0
     14008 TIP3     1896     TIP3     H2       HT       0.417000       1.00800           0
     14009 TIP3     1897     TIP3     OH2      OT      -0.834000       15.9994           0
     14010 TIP3     1897     TIP3     H1       HT       0.417000       1.00800           0
     14011 TIP3     1897     TIP3     H2       HT       0.417000       1.00800           0
     14012 TIP3     1898     TIP3     OH2      OT      -0.834000       15.9994           0
     14013 TIP3     1898     TIP3     H1       HT       0.417000       1.00800           0
     14014 TIP3     1898     TIP3     H2       HT       0.417000       1.00800           0
     14015 TIP3     1899     TIP3     OH2      OT      -0.834000       15.9994           0
     14016 TIP3     1899     TIP3     H1       HT       0.417000       1.00800           0
     14017 TIP3     1899     TIP3     H2       HT       0.417000       1.00800           0
     14018 TIP3     1900     TIP3     OH2      OT      -0.834000       15.9994           0
     14019 TIP3     1900     TIP3     H1       HT       0.417000       1.00800           0
     14020 TIP3     1900     TIP3     H2       HT       0.417000       1.00800           0
     14021 TIP3     1901     TIP3     OH2      OT      -0.834000       15.9994           0
     14022 TIP3     1901     TIP3     H1       HT       0.417000       1.00800           0
     14023 TIP3     1901     TIP3     H2       HT       0.417000       1.00800           0
     14024 TIP3     1902     TIP3     OH2      OT      -0.834000       15.9994           0
     14025 TIP3     1902     TIP3     H1       HT       0.417000       1.00800           0
     14026 TIP3     1902     TIP3     H2       HT       0.417000       1.00800           0
     14027 TIP3     1903     TIP3     OH2      OT      -0.834000       15.9994           0
     14028 TIP3     1903     TIP3     H1       HT       0.417000       1.00800           0
     14029 TIP3     1903     TIP3     H2       HT       0.417000       1.00800           0
     14030 TIP3     1904     TIP3     OH2      OT      -0.834000       15.9994           0
     14031 TIP3     1904     TIP3     H1       HT       0.417000       1.00800           0
     14032 TIP3     1904     TIP3     H2       HT       0.417000       1.00800           0
     14033 TIP3     1905     TIP3     OH2      OT      -0.834000       15.9994           0
     14034 TIP3     1905     TIP3     H1       HT       0.417000       1.00800           0
     14035 TIP3     1905     TIP3     H2       HT       0.417000       1.00800           0
     14036 TIP3     1906     TIP3     OH2      OT      -0.834000       15.9994           0
     14037 TIP3     1906     TIP3     H1       HT       0.417000       1.00800           0
     14038 TIP3     1906     TIP3     H2       HT       0.417000       1.00800           0
     14039 TIP3     1907     TIP3     OH2      OT      -0.834000       15.9994           0
     14040 TIP3     1907     TIP3     H1       HT       0.417000       1.00800           0
     14041 TIP3     1907     TIP3     H2       HT       0.417000       1.00800           0
     14042 TIP3     1908     TIP3     OH2      OT      -0.834000       15.9994           0
     14043 TIP3     1908     TIP3     H1       HT       0.417000       1.00800           0
     14044 TIP3     1908     TIP3     H2       HT       0.417000       1.00800           0
     14045 TIP3     1909     TIP3     OH2      OT      -0.834000       15.9994           0
     14046 TIP3     1909     TIP3     H1       HT       0.417000       1.00800           0
     14047 TIP3     1909     TIP3     H2       HT       0.417000       1.00800           0
     14048 TIP3     1910     TIP3     OH2      OT      -0.834000       15.9994           0
     14049 TIP3     1910     TIP3     H1       HT       0.417000       1.00800           0
     14050 TIP3     1910     TIP3     H2       HT       0.417000       1.00800           0
     14051 TIP3     1911     TIP3     OH2      OT      -0.834000       15.9994           0
     14052 TIP3     1911     TIP3     H1       HT       0.417000       1.00800           0
     14053 TIP3     1911     TIP3     H2       HT       0.417000       1.00800           0
     14054 TIP3     1912     TIP3     OH2      OT      -0.834000       15.9994           0
     14055 TIP3     1912     TIP3     H1       HT       0.417000       1.00800           0
     14056 TIP3     1912     TIP3     H2       HT       0.417000       1.00800           0
     14057 TIP3     1913     TIP3     OH2      OT      -0.834000       15.9994           0
     14058 TIP3     1913     TIP3     H1       HT       0.417000       1.00800           0
     14059 TIP3     1913     TIP3     H2       HT       0.417000       1.00800           0
     14060 TIP3     1914     TIP3     OH2      OT      -0.834000       15.9994           0
     14061 TIP3     1914     TIP3     H1       HT       0.417000       1.00800           0
     14062 TIP3     1914     TIP3     H2       HT       0.417000       1.00800           0
     14063 TIP3     1915     TIP3     OH2      OT      -0.834000       15.9994           0
     14064 TIP3     1915     TIP3     H1       HT       0.417000       1.00800           0
     14065 TIP3     1915     TIP3     H2       HT       0.417000       1.00800           0
     14066 TIP3     1916     TIP3     OH2      OT      -0.834000       15.9994           0
     14067 TIP3     1916     TIP3     H1       HT       0.417000       1.00800           0
     14068 TIP3     1916     TIP3     H2       HT       0.417000       1.00800           0
     14069 TIP3     1917     TIP3     OH2      OT      -0.834000       15.9994           0
     14070 TIP3     1917     TIP3     H1       HT       0.417000       1.00800           0
     14071 TIP3     1917     TIP3     H2       HT       0.417000       1.00800           0
     14072 TIP3     1918     TIP3     OH2      OT      -0.834000       15.9994           0
     14073 TIP3     1918     TIP3     H1       HT       0.417000       1.00800           0
     14074 TIP3     1918     TIP3     H2       HT       0.417000       1.00800           0
     14075 TIP3     1919     TIP3     OH2      OT      -0.834000       15.9994           0
     14076 TIP3     1919     TIP3     H1       HT       0.417000       1.00800           0
     14077 TIP3     1919     TIP3     H2       HT       0.417000       1.00800           0
     14078 TIP3     1920     TIP3     OH2      OT      -0.834000       15.9994           0
     14079 TIP3     1920     TIP3     H1       HT       0.417000       1.00800           0
     14080 TIP3     1920     TIP3     H2       HT       0.417000       1.00800           0
     14081 TIP3     1921     TIP3     OH2      OT      -0.834000       15.9994           0
     14082 TIP3     1921     TIP3     H1       HT       0.417000       1.00800           0
     14083 TIP3     1921     TIP3     H2       HT       0.417000       1.00800           0
     14084 TIP3     1922     TIP3     OH2      OT      -0.834000       15.9994           0
     14085 TIP3     1922     TIP3     H1       HT       0.417000       1.00800           0
     14086 TIP3     1922     TIP3     H2       HT       0.417000       1.00800           0
     14087 TIP3     1923     TIP3     OH2      OT      -0.834000       15.9994           0
     14088 TIP3     1923     TIP3     H1       HT       0.417000       1.00800           0
     14089 TIP3     1923     TIP3     H2       HT       0.417000       1.00800           0
     14090 TIP3     1924     TIP3     OH2      OT      -0.834000       15.9994           0
     14091 TIP3     1924     TIP3     H1       HT       0.417000       1.00800           0
     14092 TIP3     1924     TIP3     H2       HT       0.417000       1.00800           0
     14093 TIP3     1925     TIP3     OH2      OT      -0.834000       15.9994           0
     14094 TIP3     1925     TIP3     H1       HT       0.417000       1.00800           0
     14095 TIP3     1925     TIP3     H2       HT       0.417000       1.00800           0
     14096 TIP3     1926     TIP3     OH2      OT      -0.834000       15.9994           0
     14097 TIP3     1926     TIP3     H1       HT       0.417000       1.00800           0
     14098 TIP3     1926     TIP3     H2       HT       0.417000       1.00800           0
     14099 TIP3     1927     TIP3     OH2      OT      -0.834000       15.9994           0
     14100 TIP3     1927     TIP3     H1       HT       0.417000       1.00800           0
     14101 TIP3     1927     TIP3     H2       HT       0.417000       1.00800           0
     14102 TIP3     1928     TIP3     OH2      OT      -0.834000       15.9994           0
     14103 TIP3     1928     TIP3     H1       HT       0.417000       1.00800           0
     14104 TIP3     1928     TIP3     H2       HT       0.417000       1.00800           0
     14105 TIP3     1929     TIP3     OH2      OT      -0.834000       15.9994           0
     14106 TIP3     1929     TIP3     H1       HT       0.417000       1.00800           0
     14107 TIP3     1929     TIP3     H2       HT       0.417000       1.00800           0
     14108 TIP3     1930     TIP3     OH2      OT      -0.834000       15.9994           0
     14109 TIP3     1930     TIP3     H1       HT       0.417000       1.00800           0
     14110 TIP3     1930     TIP3     H2       HT       0.417000       1.00800           0
     14111 TIP3     1931     TIP3     OH2      OT      -0.834000       15.9994           0
     14112 TIP3     1931     TIP3     H1       HT       0.417000       1.00800           0
     14113 TIP3     1931     TIP3     H2       HT       0.417000       1.00800           0
     14114 TIP3     1932     TIP3     OH2      OT      -0.834000       15.9994           0
     14115 TIP3     1932     TIP3     H1       HT       0.417000       1.00800           0
     14116 TIP3     1932     TIP3     H2       HT       0.417000       1.00800           0
     14117 TIP3     1933     TIP3     OH2      OT      -0.834000       15.9994           0
     14118 TIP3     1933     TIP3     H1       HT       0.417000       1.00800           0
     14119 TIP3     1933     TIP3     H2       HT       0.417000       1.00800           0
     14120 TIP3     1934     TIP3     OH2      OT      -0.834000       15.9994           0
     14121 TIP3     1934     TIP3     H1       HT       0.417000       1.00800           0
     14122 TIP3     1934     TIP3     H2       HT       0.417000       1.00800           0
     14123 TIP3     1935     TIP3     OH2      OT      -0.834000       15.9994           0
     14124 TIP3     1935     TIP3     H1       HT       0.417000       1.00800           0
     14125 TIP3     1935     TIP3     H2       HT       0.417000       1.00800           0
     14126 TIP3     1936     TIP3     OH2      OT      -0.834000       15.9994           0
     14127 TIP3     1936     TIP3     H1       HT       0.417000       1.00800           0
     14128 TIP3     1936     TIP3     H2       HT       0.417000       1.00800           0
     14129 TIP3     1937     TIP3     OH2      OT      -0.834000       15.9994           0
     14130 TIP3     1937     TIP3     H1       HT       0.417000       1.00800           0
     14131 TIP3     1937     TIP3     H2       HT       0.417000       1.00800           0
     14132 TIP3     1938     TIP3     OH2      OT      -0.834000       15.9994           0
     14133 TIP3     1938     TIP3     H1       HT       0.417000       1.00800           0
     14134 TIP3     1938     TIP3     H2       HT       0.417000       1.00800           0
     14135 TIP3     1939     TIP3     OH2      OT      -0.834000       15.9994           0
     14136 TIP3     1939     TIP3     H1       HT       0.417000       1.00800           0
     14137 TIP3     1939     TIP3     H2       HT       0.417000       1.00800           0
     14138 TIP3     1940     TIP3     OH2      OT      -0.834000       15.9994           0
     14139 TIP3     1940     TIP3     H1       HT       0.417000       1.00800           0
     14140 TIP3     1940     TIP3     H2       HT       0.417000       1.00800           0
     14141 TIP3     1941     TIP3     OH2      OT      -0.834000       15.9994           0
     14142 TIP3     1941     TIP3     H1       HT       0.417000       1.00800           0
     14143 TIP3     1941     TIP3     H2       HT       0.417000       1.00800           0
     14144 TIP3     1942     TIP3     OH2      OT      -0.834000       15.9994           0
     14145 TIP3     1942     TIP3     H1       HT       0.417000       1.00800           0
     14146 TIP3     1942     TIP3     H2       HT       0.417000       1.00800           0
     14147 TIP3     1943     TIP3     OH2      OT      -0.834000       15.9994           0
     14148 TIP3     1943     TIP3     H1       HT       0.417000       1.00800           0
     14149 TIP3     1943     TIP3     H2       HT       0.417000       1.00800           0
     14150 TIP3     1944     TIP3     OH2      OT      -0.834000       15.9994           0
     14151 TIP3     1944     TIP3     H1       HT       0.417000       1.00800           0
     14152 TIP3     1944     TIP3     H2       HT       0.417000       1.00800           0
     14153 TIP3     1945     TIP3     OH2      OT      -0.834000       15.9994           0
     14154 TIP3     1945     TIP3     H1       HT       0.417000       1.00800           0
     14155 TIP3     1945     TIP3     H2       HT       0.417000       1.00800           0
     14156 TIP3     1946     TIP3     OH2      OT      -0.834000       15.9994           0
     14157 TIP3     1946     TIP3     H1       HT       0.417000       1.00800           0
     14158 TIP3     1946     TIP3     H2       HT       0.417000       1.00800           0
     14159 TIP3     1947     TIP3     OH2      OT      -0.834000       15.9994           0
     14160 TIP3     1947     TIP3     H1       HT       0.417000       1.00800           0
     14161 TIP3     1947     TIP3     H2       HT       0.417000       1.00800           0
     14162 TIP3     1948     TIP3     OH2      OT      -0.834000       15.9994           0
     14163 TIP3     1948     TIP3     H1       HT       0.417000       1.00800           0
     14164 TIP3     1948     TIP3     H2       HT       0.417000       1.00800           0
     14165 TIP3     1949     TIP3     OH2      OT      -0.834000       15.9994           0
     14166 TIP3     1949     TIP3     H1       HT       0.417000       1.00800           0
     14167 TIP3     1949     TIP3     H2       HT       0.417000       1.00800           0
     14168 TIP3     1950     TIP3     OH2      OT      -0.834000       15.9994           0
     14169 TIP3     1950     TIP3     H1       HT       0.417000       1.00800           0
     14170 TIP3     1950     TIP3     H2       HT       0.417000       1.00800           0
     14171 TIP3     1951     TIP3     OH2      OT      -0.834000       15.9994           0
     14172 TIP3     1951     TIP3     H1       HT       0.417000       1.00800           0
     14173 TIP3     1951     TIP3     H2       HT       0.417000       1.00800           0
     14174 TIP3     1952     TIP3     OH2      OT      -0.834000       15.9994           0
     14175 TIP3     1952     TIP3     H1       HT       0.417000       1.00800           0
     14176 TIP3     1952     TIP3     H2       HT       0.417000       1.00800           0
     14177 TIP3     1953     TIP3     OH2      OT      -0.834000       15.9994           0
     14178 TIP3     1953     TIP3     H1       HT       0.417000       1.00800           0
     14179 TIP3     1953     TIP3     H2       HT       0.417000       1.00800           0
     14180 TIP3     1954     TIP3     OH2      OT      -0.834000       15.9994           0
     14181 TIP3     1954     TIP3     H1       HT       0.417000       1.00800           0
     14182 TIP3     1954     TIP3     H2       HT       0.417000       1.00800           0
     14183 TIP3     1955     TIP3     OH2      OT      -0.834000       15.9994           0
     14184 TIP3     1955     TIP3     H1       HT       0.417000       1.00800           0
     14185 TIP3     1955     TIP3     H2       HT       0.417000       1.00800           0
     14186 TIP3     1956     TIP3     OH2      OT      -0.834000       15.9994           0
     14187 TIP3     1956     TIP3     H1       HT       0.417000       1.00800           0
     14188 TIP3     1956     TIP3     H2       HT       0.417000       1.00800           0
     14189 TIP3     1957     TIP3     OH2      OT      -0.834000       15.9994           0
     14190 TIP3     1957     TIP3     H1       HT       0.417000       1.00800           0
     14191 TIP3     1957     TIP3     H2       HT       0.417000       1.00800           0
     14192 TIP3     1958     TIP3     OH2      OT      -0.834000       15.9994           0
     14193 TIP3     1958     TIP3     H1       HT       0.417000       1.00800           0
     14194 TIP3     1958     TIP3     H2       HT       0.417000       1.00800           0
     14195 TIP3     1959     TIP3     OH2      OT      -0.834000       15.9994           0
     14196 TIP3     1959     TIP3     H1       HT       0.417000       1.00800           0
     14197 TIP3     1959     TIP3     H2       HT       0.417000       1.00800           0
     14198 TIP3     1960     TIP3     OH2      OT      -0.834000       15.9994           0
     14199 TIP3     1960     TIP3     H1       HT       0.417000       1.00800           0
     14200 TIP3     1960     TIP3     H2       HT       0.417000       1.00800           0
     14201 TIP3     1961     TIP3     OH2      OT      -0.834000       15.9994           0
     14202 TIP3     1961     TIP3     H1       HT       0.417000       1.00800           0
     14203 TIP3     1961     TIP3     H2       HT       0.417000       1.00800           0
     14204 TIP3     1962     TIP3     OH2      OT      -0.834000       15.9994           0
     14205 TIP3     1962     TIP3     H1       HT       0.417000       1.00800           0
     14206 TIP3     1962     TIP3     H2       HT       0.417000       1.00800           0
     14207 TIP3     1963     TIP3     OH2      OT      -0.834000       15.9994           0
     14208 TIP3     1963     TIP3     H1       HT       0.417000       1.00800           0
     14209 TIP3     1963     TIP3     H2       HT       0.417000       1.00800           0
     14210 TIP3     1964     TIP3     OH2      OT      -0.834000       15.9994           0
     14211 TIP3     1964     TIP3     H1       HT       0.417000       1.00800           0
     14212 TIP3     1964     TIP3     H2       HT       0.417000       1.00800           0
     14213 TIP3     1965     TIP3     OH2      OT      -0.834000       15.9994           0
     14214 TIP3     1965     TIP3     H1       HT       0.417000       1.00800           0
     14215 TIP3     1965     TIP3     H2       HT       0.417000       1.00800           0
     14216 TIP3     1966     TIP3     OH2      OT      -0.834000       15.9994           0
     14217 TIP3     1966     TIP3     H1       HT       0.417000       1.00800           0
     14218 TIP3     1966     TIP3     H2       HT       0.417000       1.00800           0
     14219 TIP3     1967     TIP3     OH2      OT      -0.834000       15.9994           0
     14220 TIP3     1967     TIP3     H1       HT       0.417000       1.00800           0
     14221 TIP3     1967     TIP3     H2       HT       0.417000       1.00800           0
     14222 TIP3     1968     TIP3     OH2      OT      -0.834000       15.9994           0
     14223 TIP3     1968     TIP3     H1       HT       0.417000       1.00800           0
     14224 TIP3     1968     TIP3     H2       HT       0.417000       1.00800           0
     14225 TIP3     1969     TIP3     OH2      OT      -0.834000       15.9994           0
     14226 TIP3     1969     TIP3     H1       HT       0.417000       1.00800           0
     14227 TIP3     1969     TIP3     H2       HT       0.417000       1.00800           0
     14228 TIP3     1970     TIP3     OH2      OT      -0.834000       15.9994           0
     14229 TIP3     1970     TIP3     H1       HT       0.417000       1.00800           0
     14230 TIP3     1970     TIP3     H2       HT       0.417000       1.00800           0
     14231 TIP3     1971     TIP3     OH2      OT      -0.834000       15.9994           0
     14232 TIP3     1971     TIP3     H1       HT       0.417000       1.00800           0
     14233 TIP3     1971     TIP3     H2       HT       0.417000       1.00800           0
     14234 TIP3     1972     TIP3     OH2      OT      -0.834000       15.9994           0
     14235 TIP3     1972     TIP3     H1       HT       0.417000       1.00800           0
     14236 TIP3     1972     TIP3     H2       HT       0.417000       1.00800           0
     14237 TIP3     1973     TIP3     OH2      OT      -0.834000       15.9994           0
     14238 TIP3     1973     TIP3     H1       HT       0.417000       1.00800           0
     14239 TIP3     1973     TIP3     H2       HT       0.417000       1.00800           0
     14240 TIP3     1974     TIP3     OH2      OT      -0.834000       15.9994           0
     14241 TIP3     1974     TIP3     H1       HT       0.417000       1.00800           0
     14242 TIP3     1974     TIP3     H2       HT       0.417000       1.00800           0
     14243 TIP3     1975     TIP3     OH2      OT      -0.834000       15.9994           0
     14244 TIP3     1975     TIP3     H1       HT       0.417000       1.00800           0
     14245 TIP3     1975     TIP3     H2       HT       0.417000       1.00800           0
     14246 TIP3     1976     TIP3     OH2      OT      -0.834000       15.9994           0
     14247 TIP3     1976     TIP3     H1       HT       0.417000       1.00800           0
     14248 TIP3     1976     TIP3     H2       HT       0.417000       1.00800           0
     14249 TIP3     1977     TIP3     OH2      OT      -0.834000       15.9994           0
     14250 TIP3     1977     TIP3     H1       HT       0.417000       1.00800           0
     14251 TIP3     1977     TIP3     H2       HT       0.417000       1.00800           0
     14252 TIP3     1978     TIP3     OH2      OT      -0.834000       15.9994           0
     14253 TIP3     1978     TIP3     H1       HT       0.417000       1.00800           0
     14254 TIP3     1978     TIP3     H2       HT       0.417000       1.00800           0
     14255 TIP3     1979     TIP3     OH2      OT      -0.834000       15.9994           0
     14256 TIP3     1979     TIP3     H1       HT       0.417000       1.00800           0
     14257 TIP3     1979     TIP3     H2       HT       0.417000       1.00800           0
     14258 TIP3     1980     TIP3     OH2      OT      -0.834000       15.9994           0
     14259 TIP3     1980     TIP3     H1       HT       0.417000       1.00800           0
     14260 TIP3     1980     TIP3     H2       HT       0.417000       1.00800           0
     14261 TIP3     1981     TIP3     OH2      OT      -0.834000       15.9994           0
     14262 TIP3     1981     TIP3     H1       HT       0.417000       1.00800           0
     14263 TIP3     1981     TIP3     H2       HT       0.417000       1.00800           0
     14264 TIP3     1982     TIP3     OH2      OT      -0.834000       15.9994           0
     14265 TIP3     1982     TIP3     H1       HT       0.417000       1.00800           0
     14266 TIP3     1982     TIP3     H2       HT       0.417000       1.00800           0
     14267 TIP3     1983     TIP3     OH2      OT      -0.834000       15.9994           0
     14268 TIP3     1983     TIP3     H1       HT       0.417000       1.00800           0
     14269 TIP3     1983     TIP3     H2       HT       0.417000       1.00800           0
     14270 TIP3     1984     TIP3     OH2      OT      -0.834000       15.9994           0
     14271 TIP3     1984     TIP3     H1       HT       0.417000       1.00800           0
     14272 TIP3     1984     TIP3     H2       HT       0.417000       1.00800           0
     14273 TIP3     1985     TIP3     OH2      OT      -0.834000       15.9994           0
     14274 TIP3     1985     TIP3     H1       HT       0.417000       1.00800           0
     14275 TIP3     1985     TIP3     H2       HT       0.417000       1.00800           0
     14276 TIP3     1986     TIP3     OH2      OT      -0.834000       15.9994           0
     14277 TIP3     1986     TIP3     H1       HT       0.417000       1.00800           0
     14278 TIP3     1986     TIP3     H2       HT       0.417000       1.00800           0
     14279 TIP3     1987     TIP3     OH2      OT      -0.834000       15.9994           0
     14280 TIP3     1987     TIP3     H1       HT       0.417000       1.00800           0
     14281 TIP3     1987     TIP3     H2       HT       0.417000       1.00800           0
     14282 TIP3     1988     TIP3     OH2      OT      -0.834000       15.9994           0
     14283 TIP3     1988     TIP3     H1       HT       0.417000       1.00800           0
     14284 TIP3     1988     TIP3     H2       HT       0.417000       1.00800           0
     14285 TIP3     1989     TIP3     OH2      OT      -0.834000       15.9994           0
     14286 TIP3     1989     TIP3     H1       HT       0.417000       1.00800           0
     14287 TIP3     1989     TIP3     H2       HT       0.417000       1.00800           0
     14288 TIP3     1990     TIP3     OH2      OT      -0.834000       15.9994           0
     14289 TIP3     1990     TIP3     H1       HT       0.417000       1.00800           0
     14290 TIP3     1990     TIP3     H2       HT       0.417000       1.00800           0
     14291 TIP3     1991     TIP3     OH2      OT      -0.834000       15.9994           0
     14292 TIP3     1991     TIP3     H1       HT       0.417000       1.00800           0
     14293 TIP3     1991     TIP3     H2       HT       0.417000       1.00800           0
     14294 TIP3     1992     TIP3     OH2      OT      -0.834000       15.9994           0
     14295 TIP3     1992     TIP3     H1       HT       0.417000       1.00800           0
     14296 TIP3     1992     TIP3     H2       HT       0.417000       1.00800           0
     14297 TIP3     1993     TIP3     OH2      OT      -0.834000       15.9994           0
     14298 TIP3     1993     TIP3     H1       HT       0.417000       1.00800           0
     14299 TIP3     1993     TIP3     H2       HT       0.417000       1.00800           0
     14300 TIP3     1994     TIP3     OH2      OT      -0.834000       15.9994           0
     14301 TIP3     1994     TIP3     H1       HT       0.417000       1.00800           0
     14302 TIP3     1994     TIP3     H2       HT       0.417000       1.00800           0
     14303 TIP3     1995     TIP3     OH2      OT      -0.834000       15.9994           0
     14304 TIP3     1995     TIP3     H1       HT       0.417000       1.00800           0
     14305 TIP3     1995     TIP3     H2       HT       0.417000       1.00800           0
     14306 TIP3     1996     TIP3     OH2      OT      -0.834000       15.9994           0
     14307 TIP3     1996     TIP3     H1       HT       0.417000       1.00800           0
     14308 TIP3     1996     TIP3     H2       HT       0.417000       1.00800           0
     14309 TIP3     1997     TIP3     OH2      OT      -0.834000       15.9994           0
     14310 TIP3     1997     TIP3     H1       HT       0.417000       1.00800           0
     14311 TIP3     1997     TIP3     H2       HT       0.417000       1.00800           0
     14312 TIP3     1998     TIP3     OH2      OT      -0.834000       15.9994           0
     14313 TIP3     1998     TIP3     H1       HT       0.417000       1.00800           0
     14314 TIP3     1998     TIP3     H2       HT       0.417000       1.00800           0
     14315 TIP3     1999     TIP3     OH2      OT      -0.834000       15.9994           0
     14316 TIP3     1999     TIP3     H1       HT       0.417000       1.00800           0
     14317 TIP3     1999     TIP3     H2       HT       0.417000       1.00800           0
     14318 TIP3     2000     TIP3     OH2      OT      -0.834000       15.9994           0
     14319 TIP3     2000     TIP3     H1       HT       0.417000       1.00800           0
     14320 TIP3     2000     TIP3     H2       HT       0.417000       1.00800           0
     14321 TIP3     2001     TIP3     OH2      OT      -0.834000       15.9994           0
     14322 TIP3     2001     TIP3     H1       HT       0.417000       1.00800           0
     14323 TIP3     2001     TIP3     H2       HT       0.417000       1.00800           0
     14324 TIP3     2002     TIP3     OH2      OT      -0.834000       15.9994           0
     14325 TIP3     2002     TIP3     H1       HT       0.417000       1.00800           0
     14326 TIP3     2002     TIP3     H2       HT       0.417000       1.00800           0
     14327 TIP3     2003     TIP3     OH2      OT      -0.834000       15.9994           0
     14328 TIP3     2003     TIP3     H1       HT       0.417000       1.00800           0
     14329 TIP3     2003     TIP3     H2       HT       0.417000       1.00800           0
     14330 TIP3     2004     TIP3     OH2      OT      -0.834000       15.9994           0
     14331 TIP3     2004     TIP3     H1       HT       0.417000       1.00800           0
     14332 TIP3     2004     TIP3     H2       HT       0.417000       1.00800           0
     14333 TIP3     2005     TIP3     OH2      OT      -0.834000       15.9994           0
     14334 TIP3     2005     TIP3     H1       HT       0.417000       1.00800           0
     14335 TIP3     2005     TIP3     H2       HT       0.417000       1.00800           0
     14336 TIP3     2006     TIP3     OH2      OT      -0.834000       15.9994           0
     14337 TIP3     2006     TIP3     H1       HT       0.417000       1.00800           0
     14338 TIP3     2006     TIP3     H2       HT       0.417000       1.00800           0
     14339 TIP3     2007     TIP3     OH2      OT      -0.834000       15.9994           0
     14340 TIP3     2007     TIP3     H1       HT       0.417000       1.00800           0
     14341 TIP3     2007     TIP3     H2       HT       0.417000       1.00800           0
     14342 TIP3     2008     TIP3     OH2      OT      -0.834000       15.9994           0
     14343 TIP3     2008     TIP3     H1       HT       0.417000       1.00800           0
     14344 TIP3     2008     TIP3     H2       HT       0.417000       1.00800           0
     14345 TIP3     2009     TIP3     OH2      OT      -0.834000       15.9994           0
     14346 TIP3     2009     TIP3     H1       HT       0.417000       1.00800           0
     14347 TIP3     2009     TIP3     H2       HT       0.417000       1.00800           0
     14348 TIP3     2010     TIP3     OH2      OT      -0.834000       15.9994           0
     14349 TIP3     2010     TIP3     H1       HT       0.417000       1.00800           0
     14350 TIP3     2010     TIP3     H2       HT       0.417000       1.00800           0
     14351 TIP3     2011     TIP3     OH2      OT      -0.834000       15.9994           0
     14352 TIP3     2011     TIP3     H1       HT       0.417000       1.00800           0
     14353 TIP3     2011     TIP3     H2       HT       0.417000       1.00800           0
     14354 TIP3     2012     TIP3     OH2      OT      -0.834000       15.9994           0
     14355 TIP3     2012     TIP3     H1       HT       0.417000       1.00800           0
     14356 TIP3     2012     TIP3     H2       HT       0.417000       1.00800           0
     14357 TIP3     2013     TIP3     OH2      OT      -0.834000       15.9994           0
     14358 TIP3     2013     TIP3     H1       HT       0.417000       1.00800           0
     14359 TIP3     2013     TIP3     H2       HT       0.417000       1.00800           0
     14360 TIP3     2014     TIP3     OH2      OT      -0.834000       15.9994           0
     14361 TIP3     2014     TIP3     H1       HT       0.417000       1.00800           0
     14362 TIP3     2014     TIP3     H2       HT       0.417000       1.00800           0
     14363 TIP3     2015     TIP3     OH2      OT      -0.834000       15.9994           0
     14364 TIP3     2015     TIP3     H1       HT       0.417000       1.00800           0
     14365 TIP3     2015     TIP3     H2       HT       0.417000       1.00800           0
     14366 TIP3     2016     TIP3     OH2      OT      -0.834000       15.9994           0
     14367 TIP3     2016     TIP3     H1       HT       0.417000       1.00800           0
     14368 TIP3     2016     TIP3     H2       HT       0.417000       1.00800           0
     14369 TIP3     2017     TIP3     OH2      OT      -0.834000       15.9994           0
     14370 TIP3     2017     TIP3     H1       HT       0.417000       1.00800           0
     14371 TIP3     2017     TIP3     H2       HT       0.417000       1.00800           0
     14372 TIP3     2018     TIP3     OH2      OT      -0.834000       15.9994           0
     14373 TIP3     2018     TIP3     H1       HT       0.417000       1.00800           0
     14374 TIP3     2018     TIP3     H2       HT       0.417000       1.00800           0
     14375 TIP3     2019     TIP3     OH2      OT      -0.834000       15.9994           0
     14376 TIP3     2019     TIP3     H1       HT       0.417000       1.00800           0
     14377 TIP3     2019     TIP3     H2       HT       0.417000       1.00800           0
     14378 TIP3     2020     TIP3     OH2      OT      -0.834000       15.9994           0
     14379 TIP3     2020     TIP3     H1       HT       0.417000       1.00800           0
     14380 TIP3     2020     TIP3     H2       HT       0.417000       1.00800           0
     14381 TIP3     2021     TIP3     OH2      OT      -0.834000       15.9994           0
     14382 TIP3     2021     TIP3     H1       HT       0.417000       1.00800           0
     14383 TIP3     2021     TIP3     H2       HT       0.417000       1.00800           0
     14384 TIP3     2022     TIP3     OH2      OT      -0.834000       15.9994           0
     14385 TIP3     2022     TIP3     H1       HT       0.417000       1.00800           0
     14386 TIP3     2022     TIP3     H2       HT       0.417000       1.00800           0
     14387 TIP3     2023     TIP3     OH2      OT      -0.834000       15.9994           0
     14388 TIP3     2023     TIP3     H1       HT       0.417000       1.00800           0
     14389 TIP3     2023     TIP3     H2       HT       0.417000       1.00800           0
     14390 TIP3     2024     TIP3     OH2      OT      -0.834000       15.9994           0
     14391 TIP3     2024     TIP3     H1       HT       0.417000       1.00800           0
     14392 TIP3     2024     TIP3     H2       HT       0.417000       1.00800           0
     14393 TIP3     2025     TIP3     OH2      OT      -0.834000       15.9994           0
     14394 TIP3     2025     TIP3     H1       HT       0.417000       1.00800           0
     14395 TIP3     2025     TIP3     H2       HT       0.417000       1.00800           0
     14396 TIP3     2026     TIP3     OH2      OT      -0.834000       15.9994           0
     14397 TIP3     2026     TIP3     H1       HT       0.417000       1.00800           0
     14398 TIP3     2026     TIP3     H2       HT       0.417000       1.00800           0
     14399 TIP3     2027     TIP3     OH2      OT      -0.834000       15.9994           0
     14400 TIP3     2027     TIP3     H1       HT       0.417000       1.00800           0
     14401 TIP3     2027     TIP3     H2       HT       0.417000       1.00800           0
     14402 TIP3     2028     TIP3     OH2      OT      -0.834000       15.9994           0
     14403 TIP3     2028     TIP3     H1       HT       0.417000       1.00800           0
     14404 TIP3     2028     TIP3     H2       HT       0.417000       1.00800           0
     14405 TIP3     2029     TIP3     OH2      OT      -0.834000       15.9994           0
     14406 TIP3     2029     TIP3     H1       HT       0.417000       1.00800           0
     14407 TIP3     2029     TIP3     H2       HT       0.417000       1.00800           0
     14408 TIP3     2030     TIP3     OH2      OT      -0.834000       15.9994           0
     14409 TIP3     2030     TIP3     H1       HT       0.417000       1.00800           0
     14410 TIP3     2030     TIP3     H2       HT       0.417000       1.00800           0
     14411 TIP3     2031     TIP3     OH2      OT      -0.834000       15.9994           0
     14412 TIP3     2031     TIP3     H1       HT       0.417000       1.00800           0
     14413 TIP3     2031     TIP3     H2       HT       0.417000       1.00800           0
     14414 TIP3     2032     TIP3     OH2      OT      -0.834000       15.9994           0
     14415 TIP3     2032     TIP3     H1       HT       0.417000       1.00800           0
     14416 TIP3     2032     TIP3     H2       HT       0.417000       1.00800           0
     14417 TIP3     2033     TIP3     OH2      OT      -0.834000       15.9994           0
     14418 TIP3     2033     TIP3     H1       HT       0.417000       1.00800           0
     14419 TIP3     2033     TIP3     H2       HT       0.417000       1.00800           0
     14420 TIP3     2034     TIP3     OH2      OT      -0.834000       15.9994           0
     14421 TIP3     2034     TIP3     H1       HT       0.417000       1.00800           0
     14422 TIP3     2034     TIP3     H2       HT       0.417000       1.00800           0
     14423 TIP3     2035     TIP3     OH2      OT      -0.834000       15.9994           0
     14424 TIP3     2035     TIP3     H1       HT       0.417000       1.00800           0
     14425 TIP3     2035     TIP3     H2       HT       0.417000       1.00800           0
     14426 TIP3     2036     TIP3     OH2      OT      -0.834000       15.9994           0
     14427 TIP3     2036     TIP3     H1       HT       0.417000       1.00800           0
     14428 TIP3     2036     TIP3     H2       HT       0.417000       1.00800           0
     14429 TIP3     2037     TIP3     OH2      OT      -0.834000       15.9994           0
     14430 TIP3     2037     TIP3     H1       HT       0.417000       1.00800           0
     14431 TIP3     2037     TIP3     H2       HT       0.417000       1.00800           0
     14432 TIP3     2038     TIP3     OH2      OT      -0.834000       15.9994           0
     14433 TIP3     2038     TIP3     H1       HT       0.417000       1.00800           0
     14434 TIP3     2038     TIP3     H2       HT       0.417000       1.00800           0
     14435 TIP3     2039     TIP3     OH2      OT      -0.834000       15.9994           0
     14436 TIP3     2039     TIP3     H1       HT       0.417000       1.00800           0
     14437 TIP3     2039     TIP3     H2       HT       0.417000       1.00800           0
     14438 TIP3     2040     TIP3     OH2      OT      -0.834000       15.9994           0
     14439 TIP3     2040     TIP3     H1       HT       0.417000       1.00800           0
     14440 TIP3     2040     TIP3     H2       HT       0.417000       1.00800           0
     14441 TIP3     2041     TIP3     OH2      OT      -0.834000       15.9994           0
     14442 TIP3     2041     TIP3     H1       HT       0.417000       1.00800           0
     14443 TIP3     2041     TIP3     H2       HT       0.417000       1.00800           0
     14444 TIP3     2042     TIP3     OH2      OT      -0.834000       15.9994           0
     14445 TIP3     2042     TIP3     H1       HT       0.417000       1.00800           0
     14446 TIP3     2042     TIP3     H2       HT       0.417000       1.00800           0
     14447 TIP3     2043     TIP3     OH2      OT      -0.834000       15.9994           0
     14448 TIP3     2043     TIP3     H1       HT       0.417000       1.00800           0
     14449 TIP3     2043     TIP3     H2       HT       0.417000       1.00800           0
     14450 TIP3     2044     TIP3     OH2      OT      -0.834000       15.9994           0
     14451 TIP3     2044     TIP3     H1       HT       0.417000       1.00800           0
     14452 TIP3     2044     TIP3     H2       HT       0.417000       1.00800           0
     14453 TIP3     2045     TIP3     OH2      OT      -0.834000       15.9994           0
     14454 TIP3     2045     TIP3     H1       HT       0.417000       1.00800           0
     14455 TIP3     2045     TIP3     H2       HT       0.417000       1.00800           0
     14456 TIP3     2046     TIP3     OH2      OT      -0.834000       15.9994           0
     14457 TIP3     2046     TIP3     H1       HT       0.417000       1.00800           0
     14458 TIP3     2046     TIP3     H2       HT       0.417000       1.00800           0
     14459 TIP3     2047     TIP3     OH2      OT      -0.834000       15.9994           0
     14460 TIP3     2047     TIP3     H1       HT       0.417000       1.00800           0
     14461 TIP3     2047     TIP3     H2       HT       0.417000       1.00800           0
     14462 TIP3     2048     TIP3     OH2      OT      -0.834000       15.9994           0
     14463 TIP3     2048     TIP3     H1       HT       0.417000       1.00800           0
     14464 TIP3     2048     TIP3     H2       HT       0.417000       1.00800           0
     14465 TIP3     2049     TIP3     OH2      OT      -0.834000       15.9994           0
     14466 TIP3     2049     TIP3     H1       HT       0.417000       1.00800           0
     14467 TIP3     2049     TIP3     H2       HT       0.417000       1.00800           0
     14468 TIP3     2050     TIP3     OH2      OT      -0.834000       15.9994           0
     14469 TIP3     2050     TIP3     H1       HT       0.417000       1.00800           0
     14470 TIP3     2050     TIP3     H2       HT       0.417000       1.00800           0
     14471 TIP3     2051     TIP3     OH2      OT      -0.834000       15.9994           0
     14472 TIP3     2051     TIP3     H1       HT       0.417000       1.00800           0
     14473 TIP3     2051     TIP3     H2       HT       0.417000       1.00800           0
     14474 TIP3     2052     TIP3     OH2      OT      -0.834000       15.9994           0
     14475 TIP3     2052     TIP3     H1       HT       0.417000       1.00800           0
     14476 TIP3     2052     TIP3     H2       HT       0.417000       1.00800           0
     14477 TIP3     2053     TIP3     OH2      OT      -0.834000       15.9994           0
     14478 TIP3     2053     TIP3     H1       HT       0.417000       1.00800           0
     14479 TIP3     2053     TIP3     H2       HT       0.417000       1.00800           0
     14480 TIP3     2054     TIP3     OH2      OT      -0.834000       15.9994           0
     14481 TIP3     2054     TIP3     H1       HT       0.417000       1.00800           0
     14482 TIP3     2054     TIP3     H2       HT       0.417000       1.00800           0
     14483 TIP3     2055     TIP3     OH2      OT      -0.834000       15.9994           0
     14484 TIP3     2055     TIP3     H1       HT       0.417000       1.00800           0
     14485 TIP3     2055     TIP3     H2       HT       0.417000       1.00800           0
     14486 TIP3     2056     TIP3     OH2      OT      -0.834000       15.9994           0
     14487 TIP3     2056     TIP3     H1       HT       0.417000       1.00800           0
     14488 TIP3     2056     TIP3     H2       HT       0.417000       1.00800           0
     14489 TIP3     2057     TIP3     OH2      OT      -0.834000       15.9994           0
     14490 TIP3     2057     TIP3     H1       HT       0.417000       1.00800           0
     14491 TIP3     2057     TIP3     H2       HT       0.417000       1.00800           0
     14492 TIP3     2058     TIP3     OH2      OT      -0.834000       15.9994           0
     14493 TIP3     2058     TIP3     H1       HT       0.417000       1.00800           0
     14494 TIP3     2058     TIP3     H2       HT       0.417000       1.00800           0
     14495 TIP3     2059     TIP3     OH2      OT      -0.834000       15.9994           0
     14496 TIP3     2059     TIP3     H1       HT       0.417000       1.00800           0
     14497 TIP3     2059     TIP3     H2       HT       0.417000       1.00800           0
     14498 TIP3     2060     TIP3     OH2      OT      -0.834000       15.9994           0
     14499 TIP3     2060     TIP3     H1       HT       0.417000       1.00800           0
     14500 TIP3     2060     TIP3     H2       HT       0.417000       1.00800           0
     14501 TIP3     2061     TIP3     OH2      OT      -0.834000       15.9994           0
     14502 TIP3     2061     TIP3     H1       HT       0.417000       1.00800           0
     14503 TIP3     2061     TIP3     H2       HT       0.417000       1.00800           0
     14504 TIP3     2062     TIP3     OH2      OT      -0.834000       15.9994           0
     14505 TIP3     2062     TIP3     H1       HT       0.417000       1.00800           0
     14506 TIP3     2062     TIP3     H2       HT       0.417000       1.00800           0
     14507 TIP3     2063     TIP3     OH2      OT      -0.834000       15.9994           0
     14508 TIP3     2063     TIP3     H1       HT       0.417000       1.00800           0
     14509 TIP3     2063     TIP3     H2       HT       0.417000       1.00800           0
     14510 TIP3     2064     TIP3     OH2      OT      -0.834000       15.9994           0
     14511 TIP3     2064     TIP3     H1       HT       0.417000       1.00800           0
     14512 TIP3     2064     TIP3     H2       HT       0.417000       1.00800           0
     14513 TIP3     2065     TIP3     OH2      OT      -0.834000       15.9994           0
     14514 TIP3     2065     TIP3     H1       HT       0.417000       1.00800           0
     14515 TIP3     2065     TIP3     H2       HT       0.417000       1.00800           0
     14516 TIP3     2066     TIP3     OH2      OT      -0.834000       15.9994           0
     14517 TIP3     2066     TIP3     H1       HT       0.417000       1.00800           0
     14518 TIP3     2066     TIP3     H2       HT       0.417000       1.00800           0
     14519 TIP3     2067     TIP3     OH2      OT      -0.834000       15.9994           0
     14520 TIP3     2067     TIP3     H1       HT       0.417000       1.00800           0
     14521 TIP3     2067     TIP3     H2       HT       0.417000       1.00800           0
     14522 TIP3     2068     TIP3     OH2      OT      -0.834000       15.9994           0
     14523 TIP3     2068     TIP3     H1       HT       0.417000       1.00800           0
     14524 TIP3     2068     TIP3     H2       HT       0.417000       1.00800           0
     14525 TIP3     2069     TIP3     OH2      OT      -0.834000       15.9994           0
     14526 TIP3     2069     TIP3     H1       HT       0.417000       1.00800           0
     14527 TIP3     2069     TIP3     H2       HT       0.417000       1.00800           0
     14528 TIP3     2070     TIP3     OH2      OT      -0.834000       15.9994           0
     14529 TIP3     2070     TIP3     H1       HT       0.417000       1.00800           0
     14530 TIP3     2070     TIP3     H2       HT       0.417000       1.00800           0
     14531 TIP3     2071     TIP3     OH2      OT      -0.834000       15.9994           0
     14532 TIP3     2071     TIP3     H1       HT       0.417000       1.00800           0
     14533 TIP3     2071     TIP3     H2       HT       0.417000       1.00800           0
     14534 TIP3     2072     TIP3     OH2      OT      -0.834000       15.9994           0
     14535 TIP3     2072     TIP3     H1       HT       0.417000       1.00800           0
     14536 TIP3     2072     TIP3     H2       HT       0.417000       1.00800           0
     14537 TIP3     2073     TIP3     OH2      OT      -0.834000       15.9994           0
     14538 TIP3     2073     TIP3     H1       HT       0.417000       1.00800           0
     14539 TIP3     2073     TIP3     H2       HT       0.417000       1.00800           0
     14540 TIP3     2074     TIP3     OH2      OT      -0.834000       15.9994           0
     14541 TIP3     2074     TIP3     H1       HT       0.417000       1.00800           0
     14542 TIP3     2074     TIP3     H2       HT       0.417000       1.00800           0
     14543 TIP3     2075     TIP3     OH2      OT      -0.834000       15.9994           0
     14544 TIP3     2075     TIP3     H1       HT       0.417000       1.00800           0
     14545 TIP3     2075     TIP3     H2       HT       0.417000       1.00800           0
     14546 TIP3     2076     TIP3     OH2      OT      -0.834000       15.9994           0
     14547 TIP3     2076     TIP3     H1       HT       0.417000       1.00800           0
     14548 TIP3     2076     TIP3     H2       HT       0.417000       1.00800           0
     14549 TIP3     2077     TIP3     OH2      OT      -0.834000       15.9994           0
     14550 TIP3     2077     TIP3     H1       HT       0.417000       1.00800           0
     14551 TIP3     2077     TIP3     H2       HT       0.417000       1.00800           0
     14552 TIP3     2078     TIP3     OH2      OT      -0.834000       15.9994           0
     14553 TIP3     2078     TIP3     H1       HT       0.417000       1.00800           0
     14554 TIP3     2078     TIP3     H2       HT       0.417000       1.00800           0
     14555 TIP3     2079     TIP3     OH2      OT      -0.834000       15.9994           0
     14556 TIP3     2079     TIP3     H1       HT       0.417000       1.00800           0
     14557 TIP3     2079     TIP3     H2       HT       0.417000       1.00800           0
     14558 TIP3     2080     TIP3     OH2      OT      -0.834000       15.9994           0
     14559 TIP3     2080     TIP3     H1       HT       0.417000       1.00800           0
     14560 TIP3     2080     TIP3     H2       HT       0.417000       1.00800           0
     14561 TIP3     2081     TIP3     OH2      OT      -0.834000       15.9994           0
     14562 TIP3     2081     TIP3     H1       HT       0.417000       1.00800           0
     14563 TIP3     2081     TIP3     H2       HT       0.417000       1.00800           0
     14564 TIP3     2082     TIP3     OH2      OT      -0.834000       15.9994           0
     14565 TIP3     2082     TIP3     H1       HT       0.417000       1.00800           0
     14566 TIP3     2082     TIP3     H2       HT       0.417000       1.00800           0
     14567 TIP3     2083     TIP3     OH2      OT      -0.834000       15.9994           0
     14568 TIP3     2083     TIP3     H1       HT       0.417000       1.00800           0
     14569 TIP3     2083     TIP3     H2       HT       0.417000       1.00800           0
     14570 TIP3     2084     TIP3     OH2      OT      -0.834000       15.9994           0
     14571 TIP3     2084     TIP3     H1       HT       0.417000       1.00800           0
     14572 TIP3     2084     TIP3     H2       HT       0.417000       1.00800           0
     14573 TIP3     2085     TIP3     OH2      OT      -0.834000       15.9994           0
     14574 TIP3     2085     TIP3     H1       HT       0.417000       1.00800           0
     14575 TIP3     2085     TIP3     H2       HT       0.417000       1.00800           0
     14576 TIP3     2086     TIP3     OH2      OT      -0.834000       15.9994           0
     14577 TIP3     2086     TIP3     H1       HT       0.417000       1.00800           0
     14578 TIP3     2086     TIP3     H2       HT       0.417000       1.00800           0
     14579 TIP3     2087     TIP3     OH2      OT      -0.834000       15.9994           0
     14580 TIP3     2087     TIP3     H1       HT       0.417000       1.00800           0
     14581 TIP3     2087     TIP3     H2       HT       0.417000       1.00800           0
     14582 TIP3     2088     TIP3     OH2      OT      -0.834000       15.9994           0
     14583 TIP3     2088     TIP3     H1       HT       0.417000       1.00800           0
     14584 TIP3     2088     TIP3     H2       HT       0.417000       1.00800           0
     14585 TIP3     2089     TIP3     OH2      OT      -0.834000       15.9994           0
     14586 TIP3     2089     TIP3     H1       HT       0.417000       1.00800           0
     14587 TIP3     2089     TIP3     H2       HT       0.417000       1.00800           0
     14588 TIP3     2090     TIP3     OH2      OT      -0.834000       15.9994           0
     14589 TIP3     2090     TIP3     H1       HT       0.417000       1.00800           0
     14590 TIP3     2090     TIP3     H2       HT       0.417000       1.00800           0
     14591 TIP3     2091     TIP3     OH2      OT      -0.834000       15.9994           0
     14592 TIP3     2091     TIP3     H1       HT       0.417000       1.00800           0
     14593 TIP3     2091     TIP3     H2       HT       0.417000       1.00800           0
     14594 TIP3     2092     TIP3     OH2      OT      -0.834000       15.9994           0
     14595 TIP3     2092     TIP3     H1       HT       0.417000       1.00800           0
     14596 TIP3     2092     TIP3     H2       HT       0.417000       1.00800           0
     14597 TIP3     2093     TIP3     OH2      OT      -0.834000       15.9994           0
     14598 TIP3     2093     TIP3     H1       HT       0.417000       1.00800           0
     14599 TIP3     2093     TIP3     H2       HT       0.417000       1.00800           0
     14600 TIP3     2094     TIP3     OH2      OT      -0.834000       15.9994           0
     14601 TIP3     2094     TIP3     H1       HT       0.417000       1.00800           0
     14602 TIP3     2094     TIP3     H2       HT       0.417000       1.00800           0
     14603 TIP3     2095     TIP3     OH2      OT      -0.834000       15.9994           0
     14604 TIP3     2095     TIP3     H1       HT       0.417000       1.00800           0
     14605 TIP3     2095     TIP3     H2       HT       0.417000       1.00800           0
     14606 TIP3     2096     TIP3     OH2      OT      -0.834000       15.9994           0
     14607 TIP3     2096     TIP3     H1       HT       0.417000       1.00800           0
     14608 TIP3     2096     TIP3     H2       HT       0.417000       1.00800           0
     14609 TIP3     2097     TIP3     OH2      OT      -0.834000       15.9994           0
     14610 TIP3     2097     TIP3     H1       HT       0.417000       1.00800           0
     14611 TIP3     2097     TIP3     H2       HT       0.417000       1.00800           0
     14612 TIP3     2098     TIP3     OH2      OT      -0.834000       15.9994           0
     14613 TIP3     2098     TIP3     H1       HT       0.417000       1.00800           0
     14614 TIP3     2098     TIP3     H2       HT       0.417000       1.00800           0
     14615 TIP3     2099     TIP3     OH2      OT      -0.834000       15.9994           0
     14616 TIP3     2099     TIP3     H1       HT       0.417000       1.00800           0
     14617 TIP3     2099     TIP3     H2       HT       0.417000       1.00800           0
     14618 TIP3     2100     TIP3     OH2      OT      -0.834000       15.9994           0
     14619 TIP3     2100     TIP3     H1       HT       0.417000       1.00800           0
     14620 TIP3     2100     TIP3     H2       HT       0.417000       1.00800           0
     14621 TIP3     2101     TIP3     OH2      OT      -0.834000       15.9994           0
     14622 TIP3     2101     TIP3     H1       HT       0.417000       1.00800           0
     14623 TIP3     2101     TIP3     H2       HT       0.417000       1.00800           0
     14624 TIP3     2102     TIP3     OH2      OT      -0.834000       15.9994           0
     14625 TIP3     2102     TIP3     H1       HT       0.417000       1.00800           0
     14626 TIP3     2102     TIP3     H2       HT       0.417000       1.00800           0
     14627 TIP3     2103     TIP3     OH2      OT      -0.834000       15.9994           0
     14628 TIP3     2103     TIP3     H1       HT       0.417000       1.00800           0
     14629 TIP3     2103     TIP3     H2       HT       0.417000       1.00800           0
     14630 TIP3     2104     TIP3     OH2      OT      -0.834000       15.9994           0
     14631 TIP3     2104     TIP3     H1       HT       0.417000       1.00800           0
     14632 TIP3     2104     TIP3     H2       HT       0.417000       1.00800           0
     14633 TIP3     2105     TIP3     OH2      OT      -0.834000       15.9994           0
     14634 TIP3     2105     TIP3     H1       HT       0.417000       1.00800           0
     14635 TIP3     2105     TIP3     H2       HT       0.417000       1.00800           0
     14636 TIP3     2106     TIP3     OH2      OT      -0.834000       15.9994           0
     14637 TIP3     2106     TIP3     H1       HT       0.417000       1.00800           0
     14638 TIP3     2106     TIP3     H2       HT       0.417000       1.00800           0
     14639 TIP3     2107     TIP3     OH2      OT      -0.834000       15.9994           0
     14640 TIP3     2107     TIP3     H1       HT       0.417000       1.00800           0
     14641 TIP3     2107     TIP3     H2       HT       0.417000       1.00800           0
     14642 TIP3     2108     TIP3     OH2      OT      -0.834000       15.9994           0
     14643 TIP3     2108     TIP3     H1       HT       0.417000       1.00800           0
     14644 TIP3     2108     TIP3     H2       HT       0.417000       1.00800           0
     14645 TIP3     2109     TIP3     OH2      OT      -0.834000       15.9994           0
     14646 TIP3     2109     TIP3     H1       HT       0.417000       1.00800           0
     14647 TIP3     2109     TIP3     H2       HT       0.417000       1.00800           0
     14648 TIP3     2110     TIP3     OH2      OT      -0.834000       15.9994           0
     14649 TIP3     2110     TIP3     H1       HT       0.417000       1.00800           0
     14650 TIP3     2110     TIP3     H2       HT       0.417000       1.00800           0
     14651 TIP3     2111     TIP3     OH2      OT      -0.834000       15.9994           0
     14652 TIP3     2111     TIP3     H1       HT       0.417000       1.00800           0
     14653 TIP3     2111     TIP3     H2       HT       0.417000       1.00800           0
     14654 TIP3     2112     TIP3     OH2      OT      -0.834000       15.9994           0
     14655 TIP3     2112     TIP3     H1       HT       0.417000       1.00800           0
     14656 TIP3     2112     TIP3     H2       HT       0.417000       1.00800           0
     14657 TIP3     2113     TIP3     OH2      OT      -0.834000       15.9994           0
     14658 TIP3     2113     TIP3     H1       HT       0.417000       1.00800           0
     14659 TIP3     2113     TIP3     H2       HT       0.417000       1.00800           0
     14660 TIP3     2114     TIP3     OH2      OT      -0.834000       15.9994           0
     14661 TIP3     2114     TIP3     H1       HT       0.417000       1.00800           0
     14662 TIP3     2114     TIP3     H2       HT       0.417000       1.00800           0
     14663 TIP3     2115     TIP3     OH2      OT      -0.834000       15.9994           0
     14664 TIP3     2115     TIP3     H1       HT       0.417000       1.00800           0
     14665 TIP3     2115     TIP3     H2       HT       0.417000       1.00800           0
     14666 TIP3     2116     TIP3     OH2      OT      -0.834000       15.9994           0
     14667 TIP3     2116     TIP3     H1       HT       0.417000       1.00800           0
     14668 TIP3     2116     TIP3     H2       HT       0.417000       1.00800           0
     14669 TIP3     2117     TIP3     OH2      OT      -0.834000       15.9994           0
     14670 TIP3     2117     TIP3     H1       HT       0.417000       1.00800           0
     14671 TIP3     2117     TIP3     H2       HT       0.417000       1.00800           0
     14672 TIP3     2118     TIP3     OH2      OT      -0.834000       15.9994           0
     14673 TIP3     2118     TIP3     H1       HT       0.417000       1.00800           0
     14674 TIP3     2118     TIP3     H2       HT       0.417000       1.00800           0
     14675 TIP3     2119     TIP3     OH2      OT      -0.834000       15.9994           0
     14676 TIP3     2119     TIP3     H1       HT       0.417000       1.00800           0
     14677 TIP3     2119     TIP3     H2       HT       0.417000       1.00800           0
     14678 TIP3     2120     TIP3     OH2      OT      -0.834000       15.9994           0
     14679 TIP3     2120     TIP3     H1       HT       0.417000       1.00800           0
     14680 TIP3     2120     TIP3     H2       HT       0.417000       1.00800           0
     14681 TIP3     2121     TIP3     OH2      OT      -0.834000       15.9994           0
     14682 TIP3     2121     TIP3     H1       HT       0.417000       1.00800           0
     14683 TIP3     2121     TIP3     H2       HT       0.417000       1.00800           0
     14684 TIP3     2122     TIP3     OH2      OT      -0.834000       15.9994           0
     14685 TIP3     2122     TIP3     H1       HT       0.417000       1.00800           0
     14686 TIP3     2122     TIP3     H2       HT       0.417000       1.00800           0
     14687 TIP3     2123     TIP3     OH2      OT      -0.834000       15.9994           0
     14688 TIP3     2123     TIP3     H1       HT       0.417000       1.00800           0
     14689 TIP3     2123     TIP3     H2       HT       0.417000       1.00800           0
     14690 TIP3     2124     TIP3     OH2      OT      -0.834000       15.9994           0
     14691 TIP3     2124     TIP3     H1       HT       0.417000       1.00800           0
     14692 TIP3     2124     TIP3     H2       HT       0.417000       1.00800           0
     14693 TIP3     2125     TIP3     OH2      OT      -0.834000       15.9994           0
     14694 TIP3     2125     TIP3     H1       HT       0.417000       1.00800           0
     14695 TIP3     2125     TIP3     H2       HT       0.417000       1.00800           0
     14696 TIP3     2126     TIP3     OH2      OT      -0.834000       15.9994           0
     14697 TIP3     2126     TIP3     H1       HT       0.417000       1.00800           0
     14698 TIP3     2126     TIP3     H2       HT       0.417000       1.00800           0
     14699 TIP3     2127     TIP3     OH2      OT      -0.834000       15.9994           0
     14700 TIP3     2127     TIP3     H1       HT       0.417000       1.00800           0
     14701 TIP3     2127     TIP3     H2       HT       0.417000       1.00800           0
     14702 TIP3     2128     TIP3     OH2      OT      -0.834000       15.9994           0
     14703 TIP3     2128     TIP3     H1       HT       0.417000       1.00800           0
     14704 TIP3     2128     TIP3     H2       HT       0.417000       1.00800           0
     14705 TIP3     2129     TIP3     OH2      OT      -0.834000       15.9994           0
     14706 TIP3     2129     TIP3     H1       HT       0.417000       1.00800           0
     14707 TIP3     2129     TIP3     H2       HT       0.417000       1.00800           0
     14708 TIP3     2130     TIP3     OH2      OT      -0.834000       15.9994           0
     14709 TIP3     2130     TIP3     H1       HT       0.417000       1.00800           0
     14710 TIP3     2130     TIP3     H2       HT       0.417000       1.00800           0
     14711 TIP3     2131     TIP3     OH2      OT      -0.834000       15.9994           0
     14712 TIP3     2131     TIP3     H1       HT       0.417000       1.00800           0
     14713 TIP3     2131     TIP3     H2       HT       0.417000       1.00800           0
     14714 TIP3     2132     TIP3     OH2      OT      -0.834000       15.9994           0
     14715 TIP3     2132     TIP3     H1       HT       0.417000       1.00800           0
     14716 TIP3     2132     TIP3     H2       HT       0.417000       1.00800           0
     14717 TIP3     2133     TIP3     OH2      OT      -0.834000       15.9994           0
     14718 TIP3     2133     TIP3     H1       HT       0.417000       1.00800           0
     14719 TIP3     2133     TIP3     H2       HT       0.417000       1.00800           0
     14720 TIP3     2134     TIP3     OH2      OT      -0.834000       15.9994           0
     14721 TIP3     2134     TIP3     H1       HT       0.417000       1.00800           0
     14722 TIP3     2134     TIP3     H2       HT       0.417000       1.00800           0
     14723 TIP3     2135     TIP3     OH2      OT      -0.834000       15.9994           0
     14724 TIP3     2135     TIP3     H1       HT       0.417000       1.00800           0
     14725 TIP3     2135     TIP3     H2       HT       0.417000       1.00800           0
     14726 TIP3     2136     TIP3     OH2      OT      -0.834000       15.9994           0
     14727 TIP3     2136     TIP3     H1       HT       0.417000       1.00800           0
     14728 TIP3     2136     TIP3     H2       HT       0.417000       1.00800           0
     14729 TIP3     2137     TIP3     OH2      OT      -0.834000       15.9994           0
     14730 TIP3     2137     TIP3     H1       HT       0.417000       1.00800           0
     14731 TIP3     2137     TIP3     H2       HT       0.417000       1.00800           0
     14732 TIP3     2138     TIP3     OH2      OT      -0.834000       15.9994           0
     14733 TIP3     2138     TIP3     H1       HT       0.417000       1.00800           0
     14734 TIP3     2138     TIP3     H2       HT       0.417000       1.00800           0
     14735 TIP3     2139     TIP3     OH2      OT      -0.834000       15.9994           0
     14736 TIP3     2139     TIP3     H1       HT       0.417000       1.00800           0
     14737 TIP3     2139     TIP3     H2       HT       0.417000       1.00800           0
     14738 TIP3     2140     TIP3     OH2      OT      -0.834000       15.9994           0
     14739 TIP3     2140     TIP3     H1       HT       0.417000       1.00800           0
     14740 TIP3     2140     TIP3     H2       HT       0.417000       1.00800           0
     14741 TIP3     2141     TIP3     OH2      OT      -0.834000       15.9994           0
     14742 TIP3     2141     TIP3     H1       HT       0.417000       1.00800           0
     14743 TIP3     2141     TIP3     H2       HT       0.417000       1.00800           0
     14744 TIP3     2142     TIP3     OH2      OT      -0.834000       15.9994           0
     14745 TIP3     2142     TIP3     H1       HT       0.417000       1.00800           0
     14746 TIP3     2142     TIP3     H2       HT       0.417000       1.00800           0
     14747 TIP3     2143     TIP3     OH2      OT      -0.834000       15.9994           0
     14748 TIP3     2143     TIP3     H1       HT       0.417000       1.00800           0
     14749 TIP3     2143     TIP3     H2       HT       0.417000       1.00800           0
     14750 TIP3     2144     TIP3     OH2      OT      -0.834000       15.9994           0
     14751 TIP3     2144     TIP3     H1       HT       0.417000       1.00800           0
     14752 TIP3     2144     TIP3     H2       HT       0.417000       1.00800           0
     14753 TIP3     2145     TIP3     OH2      OT      -0.834000       15.9994           0
     14754 TIP3     2145     TIP3     H1       HT       0.417000       1.00800           0
     14755 TIP3     2145     TIP3     H2       HT       0.417000       1.00800           0
     14756 TIP3     2146     TIP3     OH2      OT      -0.834000       15.9994           0
     14757 TIP3     2146     TIP3     H1       HT       0.417000       1.00800           0
     14758 TIP3     2146     TIP3     H2       HT       0.417000       1.00800           0
     14759 TIP3     2147     TIP3     OH2      OT      -0.834000       15.9994           0
     14760 TIP3     2147     TIP3     H1       HT       0.417000       1.00800           0
     14761 TIP3     2147     TIP3     H2       HT       0.417000       1.00800           0
     14762 TIP3     2148     TIP3     OH2      OT      -0.834000       15.9994           0
     14763 TIP3     2148     TIP3     H1       HT       0.417000       1.00800           0
     14764 TIP3     2148     TIP3     H2       HT       0.417000       1.00800           0
     14765 TIP3     2149     TIP3     OH2      OT      -0.834000       15.9994           0
     14766 TIP3     2149     TIP3     H1       HT       0.417000       1.00800           0
     14767 TIP3     2149     TIP3     H2       HT       0.417000       1.00800           0
     14768 TIP3     2150     TIP3     OH2      OT      -0.834000       15.9994           0
     14769 TIP3     2150     TIP3     H1       HT       0.417000       1.00800           0
     14770 TIP3     2150     TIP3     H2       HT       0.417000       1.00800           0
     14771 TIP3     2151     TIP3     OH2      OT      -0.834000       15.9994           0
     14772 TIP3     2151     TIP3     H1       HT       0.417000       1.00800           0
     14773 TIP3     2151     TIP3     H2       HT       0.417000       1.00800           0
     14774 TIP3     2152     TIP3     OH2      OT      -0.834000       15.9994           0
     14775 TIP3     2152     TIP3     H1       HT       0.417000       1.00800           0
     14776 TIP3     2152     TIP3     H2       HT       0.417000       1.00800           0
     14777 TIP3     2153     TIP3     OH2      OT      -0.834000       15.9994           0
     14778 TIP3     2153     TIP3     H1       HT       0.417000       1.00800           0
     14779 TIP3     2153     TIP3     H2       HT       0.417000       1.00800           0
     14780 TIP3     2154     TIP3     OH2      OT      -0.834000       15.9994           0
     14781 TIP3     2154     TIP3     H1       HT       0.417000       1.00800           0
     14782 TIP3     2154     TIP3     H2       HT       0.417000       1.00800           0
     14783 TIP3     2155     TIP3     OH2      OT      -0.834000       15.9994           0
     14784 TIP3     2155     TIP3     H1       HT       0.417000       1.00800           0
     14785 TIP3     2155     TIP3     H2       HT       0.417000       1.00800           0
     14786 TIP3     2156     TIP3     OH2      OT      -0.834000       15.9994           0
     14787 TIP3     2156     TIP3     H1       HT       0.417000       1.00800           0
     14788 TIP3     2156     TIP3     H2       HT       0.417000       1.00800           0
     14789 TIP3     2157     TIP3     OH2      OT      -0.834000       15.9994           0
     14790 TIP3     2157     TIP3     H1       HT       0.417000       1.00800           0
     14791 TIP3     2157     TIP3     H2       HT       0.417000       1.00800           0
     14792 TIP3     2158     TIP3     OH2      OT      -0.834000       15.9994           0
     14793 TIP3     2158     TIP3     H1       HT       0.417000       1.00800           0
     14794 TIP3     2158     TIP3     H2       HT       0.417000       1.00800           0
     14795 TIP3     2159     TIP3     OH2      OT      -0.834000       15.9994           0
     14796 TIP3     2159     TIP3     H1       HT       0.417000       1.00800           0
     14797 TIP3     2159     TIP3     H2       HT       0.417000       1.00800           0
     14798 TIP3     2160     TIP3     OH2      OT      -0.834000       15.9994           0
     14799 TIP3     2160     TIP3     H1       HT       0.417000       1.00800           0
     14800 TIP3     2160     TIP3     H2       HT       0.417000       1.00800           0
     14801 TIP3     2161     TIP3     OH2      OT      -0.834000       15.9994           0
     14802 TIP3     2161     TIP3     H1       HT       0.417000       1.00800           0
     14803 TIP3     2161     TIP3     H2       HT       0.417000       1.00800           0
     14804 TIP3     2162     TIP3     OH2      OT      -0.834000       15.9994           0
     14805 TIP3     2162     TIP3     H1       HT       0.417000       1.00800           0
     14806 TIP3     2162     TIP3     H2       HT       0.417000       1.00800           0
     14807 TIP3     2163     TIP3     OH2      OT      -0.834000       15.9994           0
     14808 TIP3     2163     TIP3     H1       HT       0.417000       1.00800           0
     14809 TIP3     2163     TIP3     H2       HT       0.417000       1.00800           0
     14810 TIP3     2164     TIP3     OH2      OT      -0.834000       15.9994           0
     14811 TIP3     2164     TIP3     H1       HT       0.417000       1.00800           0
     14812 TIP3     2164     TIP3     H2       HT       0.417000       1.00800           0
     14813 TIP3     2165     TIP3     OH2      OT      -0.834000       15.9994           0
     14814 TIP3     2165     TIP3     H1       HT       0.417000       1.00800           0
     14815 TIP3     2165     TIP3     H2       HT       0.417000       1.00800           0
     14816 TIP3     2166     TIP3     OH2      OT      -0.834000       15.9994           0
     14817 TIP3     2166     TIP3     H1       HT       0.417000       1.00800           0
     14818 TIP3     2166     TIP3     H2       HT       0.417000       1.00800           0
     14819 TIP3     2167     TIP3     OH2      OT      -0.834000       15.9994           0
     14820 TIP3     2167     TIP3     H1       HT       0.417000       1.00800           0
     14821 TIP3     2167     TIP3     H2       HT       0.417000       1.00800           0
     14822 TIP3     2168     TIP3     OH2      OT      -0.834000       15.9994           0
     14823 TIP3     2168     TIP3     H1       HT       0.417000       1.00800           0
     14824 TIP3     2168     TIP3     H2       HT       0.417000       1.00800           0
     14825 TIP3     2169     TIP3     OH2      OT      -0.834000       15.9994           0
     14826 TIP3     2169     TIP3     H1       HT       0.417000       1.00800           0
     14827 TIP3     2169     TIP3     H2       HT       0.417000       1.00800           0
     14828 TIP3     2170     TIP3     OH2      OT      -0.834000       15.9994           0
     14829 TIP3     2170     TIP3     H1       HT       0.417000       1.00800           0
     14830 TIP3     2170     TIP3     H2       HT       0.417000       1.00800           0
     14831 TIP3     2171     TIP3     OH2      OT      -0.834000       15.9994           0
     14832 TIP3     2171     TIP3     H1       HT       0.417000       1.00800           0
     14833 TIP3     2171     TIP3     H2       HT       0.417000       1.00800           0
     14834 TIP3     2172     TIP3     OH2      OT      -0.834000       15.9994           0
     14835 TIP3     2172     TIP3     H1       HT       0.417000       1.00800           0
     14836 TIP3     2172     TIP3     H2       HT       0.417000       1.00800           0
     14837 TIP3     2173     TIP3     OH2      OT      -0.834000       15.9994           0
     14838 TIP3     2173     TIP3     H1       HT       0.417000       1.00800           0
     14839 TIP3     2173     TIP3     H2       HT       0.417000       1.00800           0
     14840 TIP3     2174     TIP3     OH2      OT      -0.834000       15.9994           0
     14841 TIP3     2174     TIP3     H1       HT       0.417000       1.00800           0
     14842 TIP3     2174     TIP3     H2       HT       0.417000       1.00800           0
     14843 TIP3     2175     TIP3     OH2      OT      -0.834000       15.9994           0
     14844 TIP3     2175     TIP3     H1       HT       0.417000       1.00800           0
     14845 TIP3     2175     TIP3     H2       HT       0.417000       1.00800           0
     14846 TIP3     2176     TIP3     OH2      OT      -0.834000       15.9994           0
     14847 TIP3     2176     TIP3     H1       HT       0.417000       1.00800           0
     14848 TIP3     2176     TIP3     H2       HT       0.417000       1.00800           0
     14849 TIP3     2177     TIP3     OH2      OT      -0.834000       15.9994           0
     14850 TIP3     2177     TIP3     H1       HT       0.417000       1.00800           0
     14851 TIP3     2177     TIP3     H2       HT       0.417000       1.00800           0
     14852 TIP3     2178     TIP3     OH2      OT      -0.834000       15.9994           0
     14853 TIP3     2178     TIP3     H1       HT       0.417000       1.00800           0
     14854 TIP3     2178     TIP3     H2       HT       0.417000       1.00800           0
     14855 TIP3     2179     TIP3     OH2      OT      -0.834000       15.9994           0
     14856 TIP3     2179     TIP3     H1       HT       0.417000       1.00800           0
     14857 TIP3     2179     TIP3     H2       HT       0.417000       1.00800           0
     14858 TIP3     2180     TIP3     OH2      OT      -0.834000       15.9994           0
     14859 TIP3     2180     TIP3     H1       HT       0.417000       1.00800           0
     14860 TIP3     2180     TIP3     H2       HT       0.417000       1.00800           0
     14861 TIP3     2181     TIP3     OH2      OT      -0.834000       15.9994           0
     14862 TIP3     2181     TIP3     H1       HT       0.417000       1.00800           0
     14863 TIP3     2181     TIP3     H2       HT       0.417000       1.00800           0
     14864 TIP3     2182     TIP3     OH2      OT      -0.834000       15.9994           0
     14865 TIP3     2182     TIP3     H1       HT       0.417000       1.00800           0
     14866 TIP3     2182     TIP3     H2       HT       0.417000       1.00800           0
     14867 TIP3     2183     TIP3     OH2      OT      -0.834000       15.9994           0
     14868 TIP3     2183     TIP3     H1       HT       0.417000       1.00800           0
     14869 TIP3     2183     TIP3     H2       HT       0.417000       1.00800           0
     14870 TIP3     2184     TIP3     OH2      OT      -0.834000       15.9994           0
     14871 TIP3     2184     TIP3     H1       HT       0.417000       1.00800           0
     14872 TIP3     2184     TIP3     H2       HT       0.417000       1.00800           0
     14873 TIP3     2185     TIP3     OH2      OT      -0.834000       15.9994           0
     14874 TIP3     2185     TIP3     H1       HT       0.417000       1.00800           0
     14875 TIP3     2185     TIP3     H2       HT       0.417000       1.00800           0
     14876 TIP3     2186     TIP3     OH2      OT      -0.834000       15.9994           0
     14877 TIP3     2186     TIP3     H1       HT       0.417000       1.00800           0
     14878 TIP3     2186     TIP3     H2       HT       0.417000       1.00800           0
     14879 TIP3     2187     TIP3     OH2      OT      -0.834000       15.9994           0
     14880 TIP3     2187     TIP3     H1       HT       0.417000       1.00800           0
     14881 TIP3     2187     TIP3     H2       HT       0.417000       1.00800           0
     14882 TIP3     2188     TIP3     OH2      OT      -0.834000       15.9994           0
     14883 TIP3     2188     TIP3     H1       HT       0.417000       1.00800           0
     14884 TIP3     2188     TIP3     H2       HT       0.417000       1.00800           0
     14885 TIP3     2189     TIP3     OH2      OT      -0.834000       15.9994           0
     14886 TIP3     2189     TIP3     H1       HT       0.417000       1.00800           0
     14887 TIP3     2189     TIP3     H2       HT       0.417000       1.00800           0
     14888 TIP3     2190     TIP3     OH2      OT      -0.834000       15.9994           0
     14889 TIP3     2190     TIP3     H1       HT       0.417000       1.00800           0
     14890 TIP3     2190     TIP3     H2       HT       0.417000       1.00800           0
     14891 TIP3     2191     TIP3     OH2      OT      -0.834000       15.9994           0
     14892 TIP3     2191     TIP3     H1       HT       0.417000       1.00800           0
     14893 TIP3     2191     TIP3     H2       HT       0.417000       1.00800           0
     14894 TIP3     2192     TIP3     OH2      OT      -0.834000       15.9994           0
     14895 TIP3     2192     TIP3     H1       HT       0.417000       1.00800           0
     14896 TIP3     2192     TIP3     H2       HT       0.417000       1.00800           0
     14897 TIP3     2193     TIP3     OH2      OT      -0.834000       15.9994           0
     14898 TIP3     2193     TIP3     H1       HT       0.417000       1.00800           0
     14899 TIP3     2193     TIP3     H2       HT       0.417000       1.00800           0
     14900 TIP3     2194     TIP3     OH2      OT      -0.834000       15.9994           0
     14901 TIP3     2194     TIP3     H1       HT       0.417000       1.00800           0
     14902 TIP3     2194     TIP3     H2       HT       0.417000       1.00800           0
     14903 TIP3     2195     TIP3     OH2      OT      -0.834000       15.9994           0
     14904 TIP3     2195     TIP3     H1       HT       0.417000       1.00800           0
     14905 TIP3     2195     TIP3     H2       HT       0.417000       1.00800           0
     14906 TIP3     2196     TIP3     OH2      OT      -0.834000       15.9994           0
     14907 TIP3     2196     TIP3     H1       HT       0.417000       1.00800           0
     14908 TIP3     2196     TIP3     H2       HT       0.417000       1.00800           0
     14909 TIP3     2197     TIP3     OH2      OT      -0.834000       15.9994           0
     14910 TIP3     2197     TIP3     H1       HT       0.417000       1.00800           0
     14911 TIP3     2197     TIP3     H2       HT       0.417000       1.00800           0
     14912 TIP3     2198     TIP3     OH2      OT      -0.834000       15.9994           0
     14913 TIP3     2198     TIP3     H1       HT       0.417000       1.00800           0
     14914 TIP3     2198     TIP3     H2       HT       0.417000       1.00800           0
     14915 TIP3     2199     TIP3     OH2      OT      -0.834000       15.9994           0
     14916 TIP3     2199     TIP3     H1       HT       0.417000       1.00800           0
     14917 TIP3     2199     TIP3     H2       HT       0.417000       1.00800           0
     14918 TIP3     2200     TIP3     OH2      OT      -0.834000       15.9994           0
     14919 TIP3     2200     TIP3     H1       HT       0.417000       1.00800           0
     14920 TIP3     2200     TIP3     H2       HT       0.417000       1.00800           0
     14921 TIP3     2201     TIP3     OH2      OT      -0.834000       15.9994           0
     14922 TIP3     2201     TIP3     H1       HT       0.417000       1.00800           0
     14923 TIP3     2201     TIP3     H2       HT       0.417000       1.00800           0
     14924 TIP3     2202     TIP3     OH2      OT      -0.834000       15.9994           0
     14925 TIP3     2202     TIP3     H1       HT       0.417000       1.00800           0
     14926 TIP3     2202     TIP3     H2       HT       0.417000       1.00800           0
     14927 TIP3     2203     TIP3     OH2      OT      -0.834000       15.9994           0
     14928 TIP3     2203     TIP3     H1       HT       0.417000       1.00800           0
     14929 TIP3     2203     TIP3     H2       HT       0.417000       1.00800           0
     14930 TIP3     2204     TIP3     OH2      OT      -0.834000       15.9994           0
     14931 TIP3     2204     TIP3     H1       HT       0.417000       1.00800           0
     14932 TIP3     2204     TIP3     H2       HT       0.417000       1.00800           0
     14933 TIP3     2205     TIP3     OH2      OT      -0.834000       15.9994           0
     14934 TIP3     2205     TIP3     H1       HT       0.417000       1.00800           0
     14935 TIP3     2205     TIP3     H2       HT       0.417000       1.00800           0
     14936 TIP3     2206     TIP3     OH2      OT      -0.834000       15.9994           0
     14937 TIP3     2206     TIP3     H1       HT       0.417000       1.00800           0
     14938 TIP3     2206     TIP3     H2       HT       0.417000       1.00800           0
     14939 TIP3     2207     TIP3     OH2      OT      -0.834000       15.9994           0
     14940 TIP3     2207     TIP3     H1       HT       0.417000       1.00800           0
     14941 TIP3     2207     TIP3     H2       HT       0.417000       1.00800           0
     14942 TIP3     2208     TIP3     OH2      OT      -0.834000       15.9994           0
     14943 TIP3     2208     TIP3     H1       HT       0.417000       1.00800           0
     14944 TIP3     2208     TIP3     H2       HT       0.417000       1.00800           0
     14945 TIP3     2209     TIP3     OH2      OT      -0.834000       15.9994           0
     14946 TIP3     2209     TIP3     H1       HT       0.417000       1.00800           0
     14947 TIP3     2209     TIP3     H2       HT       0.417000       1.00800           0
     14948 TIP3     2210     TIP3     OH2      OT      -0.834000       15.9994           0
     14949 TIP3     2210     TIP3     H1       HT       0.417000       1.00800           0
     14950 TIP3     2210     TIP3     H2       HT       0.417000       1.00800           0
     14951 TIP3     2211     TIP3     OH2      OT      -0.834000       15.9994           0
     14952 TIP3     2211     TIP3     H1       HT       0.417000       1.00800           0
     14953 TIP3     2211     TIP3     H2       HT       0.417000       1.00800           0
     14954 TIP3     2212     TIP3     OH2      OT      -0.834000       15.9994           0
     14955 TIP3     2212     TIP3     H1       HT       0.417000       1.00800           0
     14956 TIP3     2212     TIP3     H2       HT       0.417000       1.00800           0
     14957 TIP3     2213     TIP3     OH2      OT      -0.834000       15.9994           0
     14958 TIP3     2213     TIP3     H1       HT       0.417000       1.00800           0
     14959 TIP3     2213     TIP3     H2       HT       0.417000       1.00800           0
     14960 TIP3     2214     TIP3     OH2      OT      -0.834000       15.9994           0
     14961 TIP3     2214     TIP3     H1       HT       0.417000       1.00800           0
     14962 TIP3     2214     TIP3     H2       HT       0.417000       1.00800           0
     14963 TIP3     2215     TIP3     OH2      OT      -0.834000       15.9994           0
     14964 TIP3     2215     TIP3     H1       HT       0.417000       1.00800           0
     14965 TIP3     2215     TIP3     H2       HT       0.417000       1.00800           0
     14966 TIP3     2216     TIP3     OH2      OT      -0.834000       15.9994           0
     14967 TIP3     2216     TIP3     H1       HT       0.417000       1.00800           0
     14968 TIP3     2216     TIP3     H2       HT       0.417000       1.00800           0
     14969 TIP3     2217     TIP3     OH2      OT      -0.834000       15.9994           0
     14970 TIP3     2217     TIP3     H1       HT       0.417000       1.00800           0
     14971 TIP3     2217     TIP3     H2       HT       0.417000       1.00800           0
     14972 TIP3     2218     TIP3     OH2      OT      -0.834000       15.9994           0
     14973 TIP3     2218     TIP3     H1       HT       0.417000       1.00800           0
     14974 TIP3     2218     TIP3     H2       HT       0.417000       1.00800           0
     14975 TIP3     2219     TIP3     OH2      OT      -0.834000       15.9994           0
     14976 TIP3     2219     TIP3     H1       HT       0.417000       1.00800           0
     14977 TIP3     2219     TIP3     H2       HT       0.417000       1.00800           0
     14978 TIP3     2220     TIP3     OH2      OT      -0.834000       15.9994           0
     14979 TIP3     2220     TIP3     H1       HT       0.417000       1.00800           0
     14980 TIP3     2220     TIP3     H2       HT       0.417000       1.00800           0
     14981 TIP3     2221     TIP3     OH2      OT      -0.834000       15.9994           0
     14982 TIP3     2221     TIP3     H1       HT       0.417000       1.00800           0
     14983 TIP3     2221     TIP3     H2       HT       0.417000       1.00800           0
     14984 TIP3     2222     TIP3     OH2      OT      -0.834000       15.9994           0
     14985 TIP3     2222     TIP3     H1       HT       0.417000       1.00800           0
     14986 TIP3     2222     TIP3     H2       HT       0.417000       1.00800           0
     14987 TIP3     2223     TIP3     OH2      OT      -0.834000       15.9994           0
     14988 TIP3     2223     TIP3     H1       HT       0.417000       1.00800           0
     14989 TIP3     2223     TIP3     H2       HT       0.417000       1.00800           0
     14990 TIP3     2224     TIP3     OH2      OT      -0.834000       15.9994           0
     14991 TIP3     2224     TIP3     H1       HT       0.417000       1.00800           0
     14992 TIP3     2224     TIP3     H2       HT       0.417000       1.00800           0
     14993 TIP3     2225     TIP3     OH2      OT      -0.834000       15.9994           0
     14994 TIP3     2225     TIP3     H1       HT       0.417000       1.00800           0
     14995 TIP3     2225     TIP3     H2       HT       0.417000       1.00800           0
     14996 TIP3     2226     TIP3     OH2      OT      -0.834000       15.9994           0
     14997 TIP3     2226     TIP3     H1       HT       0.417000       1.00800           0
     14998 TIP3     2226     TIP3     H2       HT       0.417000       1.00800           0
     14999 TIP3     2227     TIP3     OH2      OT      -0.834000       15.9994           0
     15000 TIP3     2227     TIP3     H1       HT       0.417000       1.00800           0
     15001 TIP3     2227     TIP3     H2       HT       0.417000       1.00800           0
     15002 TIP3     2228     TIP3     OH2      OT      -0.834000       15.9994           0
     15003 TIP3     2228     TIP3     H1       HT       0.417000       1.00800           0
     15004 TIP3     2228     TIP3     H2       HT       0.417000       1.00800           0
     15005 TIP3     2229     TIP3     OH2      OT      -0.834000       15.9994           0
     15006 TIP3     2229     TIP3     H1       HT       0.417000       1.00800           0
     15007 TIP3     2229     TIP3     H2       HT       0.417000       1.00800           0
     15008 TIP3     2230     TIP3     OH2      OT      -0.834000       15.9994           0
     15009 TIP3     2230     TIP3     H1       HT       0.417000       1.00800           0
     15010 TIP3     2230     TIP3     H2       HT       0.417000       1.00800           0
     15011 TIP3     2231     TIP3     OH2      OT      -0.834000       15.9994           0
     15012 TIP3     2231     TIP3     H1       HT       0.417000       1.00800           0
     15013 TIP3     2231     TIP3     H2       HT       0.417000       1.00800           0
     15014 TIP3     2232     TIP3     OH2      OT      -0.834000       15.9994           0
     15015 TIP3     2232     TIP3     H1       HT       0.417000       1.00800           0
     15016 TIP3     2232     TIP3     H2       HT       0.417000       1.00800           0
     15017 TIP3     2233     TIP3     OH2      OT      -0.834000       15.9994           0
     15018 TIP3     2233     TIP3     H1       HT       0.417000       1.00800           0
     15019 TIP3     2233     TIP3     H2       HT       0.417000       1.00800           0
     15020 TIP3     2234     TIP3     OH2      OT      -0.834000       15.9994           0
     15021 TIP3     2234     TIP3     H1       HT       0.417000       1.00800           0
     15022 TIP3     2234     TIP3     H2       HT       0.417000       1.00800           0
     15023 TIP3     2235     TIP3     OH2      OT      -0.834000       15.9994           0
     15024 TIP3     2235     TIP3     H1       HT       0.417000       1.00800           0
     15025 TIP3     2235     TIP3     H2       HT       0.417000       1.00800           0
     15026 TIP3     2236     TIP3     OH2      OT      -0.834000       15.9994           0
     15027 TIP3     2236     TIP3     H1       HT       0.417000       1.00800           0
     15028 TIP3     2236     TIP3     H2       HT       0.417000       1.00800           0
     15029 TIP3     2237     TIP3     OH2      OT      -0.834000       15.9994           0
     15030 TIP3     2237     TIP3     H1       HT       0.417000       1.00800           0
     15031 TIP3     2237     TIP3     H2       HT       0.417000       1.00800           0
     15032 TIP3     2238     TIP3     OH2      OT      -0.834000       15.9994           0
     15033 TIP3     2238     TIP3     H1       HT       0.417000       1.00800           0
     15034 TIP3     2238     TIP3     H2       HT       0.417000       1.00800           0
     15035 TIP3     2239     TIP3     OH2      OT      -0.834000       15.9994           0
     15036 TIP3     2239     TIP3     H1       HT       0.417000       1.00800           0
     15037 TIP3     2239     TIP3     H2       HT       0.417000       1.00800           0
     15038 TIP3     2240     TIP3     OH2      OT      -0.834000       15.9994           0
     15039 TIP3     2240     TIP3     H1       HT       0.417000       1.00800           0
     15040 TIP3     2240     TIP3     H2       HT       0.417000       1.00800           0
     15041 TIP3     2241     TIP3     OH2      OT      -0.834000       15.9994           0
     15042 TIP3     2241     TIP3     H1       HT       0.417000       1.00800           0
     15043 TIP3     2241     TIP3     H2       HT       0.417000       1.00800           0
     15044 TIP3     2242     TIP3     OH2      OT      -0.834000       15.9994           0
     15045 TIP3     2242     TIP3     H1       HT       0.417000       1.00800           0
     15046 TIP3     2242     TIP3     H2       HT       0.417000       1.00800           0
     15047 TIP3     2243     TIP3     OH2      OT      -0.834000       15.9994           0
     15048 TIP3     2243     TIP3     H1       HT       0.417000       1.00800           0
     15049 TIP3     2243     TIP3     H2       HT       0.417000       1.00800           0
     15050 TIP3     2244     TIP3     OH2      OT      -0.834000       15.9994           0
     15051 TIP3     2244     TIP3     H1       HT       0.417000       1.00800           0
     15052 TIP3     2244     TIP3     H2       HT       0.417000       1.00800           0
     15053 TIP3     2245     TIP3     OH2      OT      -0.834000       15.9994           0
     15054 TIP3     2245     TIP3     H1       HT       0.417000       1.00800           0
     15055 TIP3     2245     TIP3     H2       HT       0.417000       1.00800           0
     15056 TIP3     2246     TIP3     OH2      OT      -0.834000       15.9994           0
     15057 TIP3     2246     TIP3     H1       HT       0.417000       1.00800           0
     15058 TIP3     2246     TIP3     H2       HT       0.417000       1.00800           0
     15059 TIP3     2247     TIP3     OH2      OT      -0.834000       15.9994           0
     15060 TIP3     2247     TIP3     H1       HT       0.417000       1.00800           0
     15061 TIP3     2247     TIP3     H2       HT       0.417000       1.00800           0
     15062 TIP3     2248     TIP3     OH2      OT      -0.834000       15.9994           0
     15063 TIP3     2248     TIP3     H1       HT       0.417000       1.00800           0
     15064 TIP3     2248     TIP3     H2       HT       0.417000       1.00800           0
     15065 TIP3     2249     TIP3     OH2      OT      -0.834000       15.9994           0
     15066 TIP3     2249     TIP3     H1       HT       0.417000       1.00800           0
     15067 TIP3     2249     TIP3     H2       HT       0.417000       1.00800           0
     15068 TIP3     2250     TIP3     OH2      OT      -0.834000       15.9994           0
     15069 TIP3     2250     TIP3     H1       HT       0.417000       1.00800           0
     15070 TIP3     2250     TIP3     H2       HT       0.417000       1.00800           0
     15071 TIP3     2251     TIP3     OH2      OT      -0.834000       15.9994           0
     15072 TIP3     2251     TIP3     H1       HT       0.417000       1.00800           0
     15073 TIP3     2251     TIP3     H2       HT       0.417000       1.00800           0
     15074 TIP3     2252     TIP3     OH2      OT      -0.834000       15.9994           0
     15075 TIP3     2252     TIP3     H1       HT       0.417000       1.00800           0
     15076 TIP3     2252     TIP3     H2       HT       0.417000       1.00800           0
     15077 TIP3     2253     TIP3     OH2      OT      -0.834000       15.9994           0
     15078 TIP3     2253     TIP3     H1       HT       0.417000       1.00800           0
     15079 TIP3     2253     TIP3     H2       HT       0.417000       1.00800           0
     15080 TIP3     2254     TIP3     OH2      OT      -0.834000       15.9994           0
     15081 TIP3     2254     TIP3     H1       HT       0.417000       1.00800           0
     15082 TIP3     2254     TIP3     H2       HT       0.417000       1.00800           0
     15083 TIP3     2255     TIP3     OH2      OT      -0.834000       15.9994           0
     15084 TIP3     2255     TIP3     H1       HT       0.417000       1.00800           0
     15085 TIP3     2255     TIP3     H2       HT       0.417000       1.00800           0
     15086 TIP3     2256     TIP3     OH2      OT      -0.834000       15.9994           0
     15087 TIP3     2256     TIP3     H1       HT       0.417000       1.00800           0
     15088 TIP3     2256     TIP3     H2       HT       0.417000       1.00800           0
     15089 TIP3     2257     TIP3     OH2      OT      -0.834000       15.9994           0
     15090 TIP3     2257     TIP3     H1       HT       0.417000       1.00800           0
     15091 TIP3     2257     TIP3     H2       HT       0.417000       1.00800           0
     15092 TIP3     2258     TIP3     OH2      OT      -0.834000       15.9994           0
     15093 TIP3     2258     TIP3     H1       HT       0.417000       1.00800           0
     15094 TIP3     2258     TIP3     H2       HT       0.417000       1.00800           0
     15095 TIP3     2259     TIP3     OH2      OT      -0.834000       15.9994           0
     15096 TIP3     2259     TIP3     H1       HT       0.417000       1.00800           0
     15097 TIP3     2259     TIP3     H2       HT       0.417000       1.00800           0
     15098 TIP3     2260     TIP3     OH2      OT      -0.834000       15.9994           0
     15099 TIP3     2260     TIP3     H1       HT       0.417000       1.00800           0
     15100 TIP3     2260     TIP3     H2       HT       0.417000       1.00800           0
     15101 TIP3     2261     TIP3     OH2      OT      -0.834000       15.9994           0
     15102 TIP3     2261     TIP3     H1       HT       0.417000       1.00800           0
     15103 TIP3     2261     TIP3     H2       HT       0.417000       1.00800           0
     15104 TIP3     2262     TIP3     OH2      OT      -0.834000       15.9994           0
     15105 TIP3     2262     TIP3     H1       HT       0.417000       1.00800           0
     15106 TIP3     2262     TIP3     H2       HT       0.417000       1.00800           0
     15107 TIP3     2263     TIP3     OH2      OT      -0.834000       15.9994           0
     15108 TIP3     2263     TIP3     H1       HT       0.417000       1.00800           0
     15109 TIP3     2263     TIP3     H2       HT       0.417000       1.00800           0
     15110 TIP3     2264     TIP3     OH2      OT      -0.834000       15.9994           0
     15111 TIP3     2264     TIP3     H1       HT       0.417000       1.00800           0
     15112 TIP3     2264     TIP3     H2       HT       0.417000       1.00800           0
     15113 TIP3     2265     TIP3     OH2      OT      -0.834000       15.9994           0
     15114 TIP3     2265     TIP3     H1       HT       0.417000       1.00800           0
     15115 TIP3     2265     TIP3     H2       HT       0.417000       1.00800           0
     15116 TIP3     2266     TIP3     OH2      OT      -0.834000       15.9994           0
     15117 TIP3     2266     TIP3     H1       HT       0.417000       1.00800           0
     15118 TIP3     2266     TIP3     H2       HT       0.417000       1.00800           0
     15119 TIP3     2267     TIP3     OH2      OT      -0.834000       15.9994           0
     15120 TIP3     2267     TIP3     H1       HT       0.417000       1.00800           0
     15121 TIP3     2267     TIP3     H2       HT       0.417000       1.00800           0
     15122 TIP3     2268     TIP3     OH2      OT      -0.834000       15.9994           0
     15123 TIP3     2268     TIP3     H1       HT       0.417000       1.00800           0
     15124 TIP3     2268     TIP3     H2       HT       0.417000       1.00800           0
     15125 TIP3     2269     TIP3     OH2      OT      -0.834000       15.9994           0
     15126 TIP3     2269     TIP3     H1       HT       0.417000       1.00800           0
     15127 TIP3     2269     TIP3     H2       HT       0.417000       1.00800           0
     15128 TIP3     2270     TIP3     OH2      OT      -0.834000       15.9994           0
     15129 TIP3     2270     TIP3     H1       HT       0.417000       1.00800           0
     15130 TIP3     2270     TIP3     H2       HT       0.417000       1.00800           0
     15131 TIP3     2271     TIP3     OH2      OT      -0.834000       15.9994           0
     15132 TIP3     2271     TIP3     H1       HT       0.417000       1.00800           0
     15133 TIP3     2271     TIP3     H2       HT       0.417000       1.00800           0
     15134 TIP3     2272     TIP3     OH2      OT      -0.834000       15.9994           0
     15135 TIP3     2272     TIP3     H1       HT       0.417000       1.00800           0
     15136 TIP3     2272     TIP3     H2       HT       0.417000       1.00800           0
     15137 TIP3     2273     TIP3     OH2      OT      -0.834000       15.9994           0
     15138 TIP3     2273     TIP3     H1       HT       0.417000       1.00800           0
     15139 TIP3     2273     TIP3     H2       HT       0.417000       1.00800           0
     15140 TIP3     2274     TIP3     OH2      OT      -0.834000       15.9994           0
     15141 TIP3     2274     TIP3     H1       HT       0.417000       1.00800           0
     15142 TIP3     2274     TIP3     H2       HT       0.417000       1.00800           0
     15143 TIP3     2275     TIP3     OH2      OT      -0.834000       15.9994           0
     15144 TIP3     2275     TIP3     H1       HT       0.417000       1.00800           0
     15145 TIP3     2275     TIP3     H2       HT       0.417000       1.00800           0
     15146 TIP3     2276     TIP3     OH2      OT      -0.834000       15.9994           0
     15147 TIP3     2276     TIP3     H1       HT       0.417000       1.00800           0
     15148 TIP3     2276     TIP3     H2       HT       0.417000       1.00800           0
     15149 TIP3     2277     TIP3     OH2      OT      -0.834000       15.9994           0
     15150 TIP3     2277     TIP3     H1       HT       0.417000       1.00800           0
     15151 TIP3     2277     TIP3     H2       HT       0.417000       1.00800           0
     15152 TIP3     2278     TIP3     OH2      OT      -0.834000       15.9994           0
     15153 TIP3     2278     TIP3     H1       HT       0.417000       1.00800           0
     15154 TIP3     2278     TIP3     H2       HT       0.417000       1.00800           0
     15155 TIP3     2279     TIP3     OH2      OT      -0.834000       15.9994           0
     15156 TIP3     2279     TIP3     H1       HT       0.417000       1.00800           0
     15157 TIP3     2279     TIP3     H2       HT       0.417000       1.00800           0
     15158 TIP3     2280     TIP3     OH2      OT      -0.834000       15.9994           0
     15159 TIP3     2280     TIP3     H1       HT       0.417000       1.00800           0
     15160 TIP3     2280     TIP3     H2       HT       0.417000       1.00800           0
     15161 TIP3     2281     TIP3     OH2      OT      -0.834000       15.9994           0
     15162 TIP3     2281     TIP3     H1       HT       0.417000       1.00800           0
     15163 TIP3     2281     TIP3     H2       HT       0.417000       1.00800           0
     15164 TIP3     2282     TIP3     OH2      OT      -0.834000       15.9994           0
     15165 TIP3     2282     TIP3     H1       HT       0.417000       1.00800           0
     15166 TIP3     2282     TIP3     H2       HT       0.417000       1.00800           0
     15167 TIP3     2283     TIP3     OH2      OT      -0.834000       15.9994           0
     15168 TIP3     2283     TIP3     H1       HT       0.417000       1.00800           0
     15169 TIP3     2283     TIP3     H2       HT       0.417000       1.00800           0
     15170 TIP3     2284     TIP3     OH2      OT      -0.834000       15.9994           0
     15171 TIP3     2284     TIP3     H1       HT       0.417000       1.00800           0
     15172 TIP3     2284     TIP3     H2       HT       0.417000       1.00800           0
     15173 TIP3     2285     TIP3     OH2      OT      -0.834000       15.9994           0
     15174 TIP3     2285     TIP3     H1       HT       0.417000       1.00800           0
     15175 TIP3     2285     TIP3     H2       HT       0.417000       1.00800           0
     15176 TIP3     2286     TIP3     OH2      OT      -0.834000       15.9994           0
     15177 TIP3     2286     TIP3     H1       HT       0.417000       1.00800           0
     15178 TIP3     2286     TIP3     H2       HT       0.417000       1.00800           0
     15179 TIP3     2287     TIP3     OH2      OT      -0.834000       15.9994           0
     15180 TIP3     2287     TIP3     H1       HT       0.417000       1.00800           0
     15181 TIP3     2287     TIP3     H2       HT       0.417000       1.00800           0
     15182 TIP3     2288     TIP3     OH2      OT      -0.834000       15.9994           0
     15183 TIP3     2288     TIP3     H1       HT       0.417000       1.00800           0
     15184 TIP3     2288     TIP3     H2       HT       0.417000       1.00800           0
     15185 TIP3     2289     TIP3     OH2      OT      -0.834000       15.9994           0
     15186 TIP3     2289     TIP3     H1       HT       0.417000       1.00800           0
     15187 TIP3     2289     TIP3     H2       HT       0.417000       1.00800           0
     15188 TIP3     2290     TIP3     OH2      OT      -0.834000       15.9994           0
     15189 TIP3     2290     TIP3     H1       HT       0.417000       1.00800           0
     15190 TIP3     2290     TIP3     H2       HT       0.417000       1.00800           0
     15191 TIP3     2291     TIP3     OH2      OT      -0.834000       15.9994           0
     15192 TIP3     2291     TIP3     H1       HT       0.417000       1.00800           0
     15193 TIP3     2291     TIP3     H2       HT       0.417000       1.00800           0
     15194 TIP3     2292     TIP3     OH2      OT      -0.834000       15.9994           0
     15195 TIP3     2292     TIP3     H1       HT       0.417000       1.00800           0
     15196 TIP3     2292     TIP3     H2       HT       0.417000       1.00800           0
     15197 TIP3     2293     TIP3     OH2      OT      -0.834000       15.9994           0
     15198 TIP3     2293     TIP3     H1       HT       0.417000       1.00800           0
     15199 TIP3     2293     TIP3     H2       HT       0.417000       1.00800           0
     15200 TIP3     2294     TIP3     OH2      OT      -0.834000       15.9994           0
     15201 TIP3     2294     TIP3     H1       HT       0.417000       1.00800           0
     15202 TIP3     2294     TIP3     H2       HT       0.417000       1.00800           0
     15203 TIP3     2295     TIP3     OH2      OT      -0.834000       15.9994           0
     15204 TIP3     2295     TIP3     H1       HT       0.417000       1.00800           0
     15205 TIP3     2295     TIP3     H2       HT       0.417000       1.00800           0
     15206 TIP3     2296     TIP3     OH2      OT      -0.834000       15.9994           0
     15207 TIP3     2296     TIP3     H1       HT       0.417000       1.00800           0
     15208 TIP3     2296     TIP3     H2       HT       0.417000       1.00800           0
     15209 TIP3     2297     TIP3     OH2      OT      -0.834000       15.9994           0
     15210 TIP3     2297     TIP3     H1       HT       0.417000       1.00800           0
     15211 TIP3     2297     TIP3     H2       HT       0.417000       1.00800           0
     15212 TIP3     2298     TIP3     OH2      OT      -0.834000       15.9994           0
     15213 TIP3     2298     TIP3     H1       HT       0.417000       1.00800           0
     15214 TIP3     2298     TIP3     H2       HT       0.417000       1.00800           0
     15215 TIP3     2299     TIP3     OH2      OT      -0.834000       15.9994           0
     15216 TIP3     2299     TIP3     H1       HT       0.417000       1.00800           0
     15217 TIP3     2299     TIP3     H2       HT       0.417000       1.00800           0
     15218 TIP3     2300     TIP3     OH2      OT      -0.834000       15.9994           0
     15219 TIP3     2300     TIP3     H1       HT       0.417000       1.00800           0
     15220 TIP3     2300     TIP3     H2       HT       0.417000       1.00800           0
     15221 TIP3     2301     TIP3     OH2      OT      -0.834000       15.9994           0
     15222 TIP3     2301     TIP3     H1       HT       0.417000       1.00800           0
     15223 TIP3     2301     TIP3     H2       HT       0.417000       1.00800           0
     15224 TIP3     2302     TIP3     OH2      OT      -0.834000       15.9994           0
     15225 TIP3     2302     TIP3     H1       HT       0.417000       1.00800           0
     15226 TIP3     2302     TIP3     H2       HT       0.417000       1.00800           0
     15227 TIP3     2303     TIP3     OH2      OT      -0.834000       15.9994           0
     15228 TIP3     2303     TIP3     H1       HT       0.417000       1.00800           0
     15229 TIP3     2303     TIP3     H2       HT       0.417000       1.00800           0
     15230 TIP3     2304     TIP3     OH2      OT      -0.834000       15.9994           0
     15231 TIP3     2304     TIP3     H1       HT       0.417000       1.00800           0
     15232 TIP3     2304     TIP3     H2       HT       0.417000       1.00800           0
     15233 TIP3     2305     TIP3     OH2      OT      -0.834000       15.9994           0
     15234 TIP3     2305     TIP3     H1       HT       0.417000       1.00800           0
     15235 TIP3     2305     TIP3     H2       HT       0.417000       1.00800           0
     15236 TIP3     2306     TIP3     OH2      OT      -0.834000       15.9994           0
     15237 TIP3     2306     TIP3     H1       HT       0.417000       1.00800           0
     15238 TIP3     2306     TIP3     H2       HT       0.417000       1.00800           0
     15239 TIP3     2307     TIP3     OH2      OT      -0.834000       15.9994           0
     15240 TIP3     2307     TIP3     H1       HT       0.417000       1.00800           0
     15241 TIP3     2307     TIP3     H2       HT       0.417000       1.00800           0
     15242 TIP3     2308     TIP3     OH2      OT      -0.834000       15.9994           0
     15243 TIP3     2308     TIP3     H1       HT       0.417000       1.00800           0
     15244 TIP3     2308     TIP3     H2       HT       0.417000       1.00800           0
     15245 TIP3     2309     TIP3     OH2      OT      -0.834000       15.9994           0
     15246 TIP3     2309     TIP3     H1       HT       0.417000       1.00800           0
     15247 TIP3     2309     TIP3     H2       HT       0.417000       1.00800           0
     15248 TIP3     2310     TIP3     OH2      OT      -0.834000       15.9994           0
     15249 TIP3     2310     TIP3     H1       HT       0.417000       1.00800           0
     15250 TIP3     2310     TIP3     H2       HT       0.417000       1.00800           0
     15251 TIP3     2311     TIP3     OH2      OT      -0.834000       15.9994           0
     15252 TIP3     2311     TIP3     H1       HT       0.417000       1.00800           0
     15253 TIP3     2311     TIP3     H2       HT       0.417000       1.00800           0
     15254 TIP3     2312     TIP3     OH2      OT      -0.834000       15.9994           0
     15255 TIP3     2312     TIP3     H1       HT       0.417000       1.00800           0
     15256 TIP3     2312     TIP3     H2       HT       0.417000       1.00800           0
     15257 TIP3     2313     TIP3     OH2      OT      -0.834000       15.9994           0
     15258 TIP3     2313     TIP3     H1       HT       0.417000       1.00800           0
     15259 TIP3     2313     TIP3     H2       HT       0.417000       1.00800           0
     15260 TIP3     2314     TIP3     OH2      OT      -0.834000       15.9994           0
     15261 TIP3     2314     TIP3     H1       HT       0.417000       1.00800           0
     15262 TIP3     2314     TIP3     H2       HT       0.417000       1.00800           0
     15263 TIP3     2315     TIP3     OH2      OT      -0.834000       15.9994           0
     15264 TIP3     2315     TIP3     H1       HT       0.417000       1.00800           0
     15265 TIP3     2315     TIP3     H2       HT       0.417000       1.00800           0
     15266 TIP3     2316     TIP3     OH2      OT      -0.834000       15.9994           0
     15267 TIP3     2316     TIP3     H1       HT       0.417000       1.00800           0
     15268 TIP3     2316     TIP3     H2       HT       0.417000       1.00800           0
     15269 TIP3     2317     TIP3     OH2      OT      -0.834000       15.9994           0
     15270 TIP3     2317     TIP3     H1       HT       0.417000       1.00800           0
     15271 TIP3     2317     TIP3     H2       HT       0.417000       1.00800           0
     15272 TIP3     2318     TIP3     OH2      OT      -0.834000       15.9994           0
     15273 TIP3     2318     TIP3     H1       HT       0.417000       1.00800           0
     15274 TIP3     2318     TIP3     H2       HT       0.417000       1.00800           0
     15275 TIP3     2319     TIP3     OH2      OT      -0.834000       15.9994           0
     15276 TIP3     2319     TIP3     H1       HT       0.417000       1.00800           0
     15277 TIP3     2319     TIP3     H2       HT       0.417000       1.00800           0
     15278 TIP3     2320     TIP3     OH2      OT      -0.834000       15.9994           0
     15279 TIP3     2320     TIP3     H1       HT       0.417000       1.00800           0
     15280 TIP3     2320     TIP3     H2       HT       0.417000       1.00800           0
     15281 TIP3     2321     TIP3     OH2      OT      -0.834000       15.9994           0
     15282 TIP3     2321     TIP3     H1       HT       0.417000       1.00800           0
     15283 TIP3     2321     TIP3     H2       HT       0.417000       1.00800           0
     15284 TIP3     2322     TIP3     OH2      OT      -0.834000       15.9994           0
     15285 TIP3     2322     TIP3     H1       HT       0.417000       1.00800           0
     15286 TIP3     2322     TIP3     H2       HT       0.417000       1.00800           0
     15287 TIP3     2323     TIP3     OH2      OT      -0.834000       15.9994           0
     15288 TIP3     2323     TIP3     H1       HT       0.417000       1.00800           0
     15289 TIP3     2323     TIP3     H2       HT       0.417000       1.00800           0
     15290 TIP3     2324     TIP3     OH2      OT      -0.834000       15.9994           0
     15291 TIP3     2324     TIP3     H1       HT       0.417000       1.00800           0
     15292 TIP3     2324     TIP3     H2       HT       0.417000       1.00800           0
     15293 TIP3     2325     TIP3     OH2      OT      -0.834000       15.9994           0
     15294 TIP3     2325     TIP3     H1       HT       0.417000       1.00800           0
     15295 TIP3     2325     TIP3     H2       HT       0.417000       1.00800           0
     15296 TIP3     2326     TIP3     OH2      OT      -0.834000       15.9994           0
     15297 TIP3     2326     TIP3     H1       HT       0.417000       1.00800           0
     15298 TIP3     2326     TIP3     H2       HT       0.417000       1.00800           0
     15299 TIP3     2327     TIP3     OH2      OT      -0.834000       15.9994           0
     15300 TIP3     2327     TIP3     H1       HT       0.417000       1.00800           0
     15301 TIP3     2327     TIP3     H2       HT       0.417000       1.00800           0
     15302 TIP3     2328     TIP3     OH2      OT      -0.834000       15.9994           0
     15303 TIP3     2328     TIP3     H1       HT       0.417000       1.00800           0
     15304 TIP3     2328     TIP3     H2       HT       0.417000       1.00800           0
     15305 TIP3     2329     TIP3     OH2      OT      -0.834000       15.9994           0
     15306 TIP3     2329     TIP3     H1       HT       0.417000       1.00800           0
     15307 TIP3     2329     TIP3     H2       HT       0.417000       1.00800           0
     15308 TIP3     2330     TIP3     OH2      OT      -0.834000       15.9994           0
     15309 TIP3     2330     TIP3     H1       HT       0.417000       1.00800           0
     15310 TIP3     2330     TIP3     H2       HT       0.417000       1.00800           0
     15311 TIP3     2331     TIP3     OH2      OT      -0.834000       15.9994           0
     15312 TIP3     2331     TIP3     H1       HT       0.417000       1.00800           0
     15313 TIP3     2331     TIP3     H2       HT       0.417000       1.00800           0
     15314 TIP3     2332     TIP3     OH2      OT      -0.834000       15.9994           0
     15315 TIP3     2332     TIP3     H1       HT       0.417000       1.00800           0
     15316 TIP3     2332     TIP3     H2       HT       0.417000       1.00800           0
     15317 TIP3     2333     TIP3     OH2      OT      -0.834000       15.9994           0
     15318 TIP3     2333     TIP3     H1       HT       0.417000       1.00800           0
     15319 TIP3     2333     TIP3     H2       HT       0.417000       1.00800           0
     15320 TIP3     2334     TIP3     OH2      OT      -0.834000       15.9994           0
     15321 TIP3     2334     TIP3     H1       HT       0.417000       1.00800           0
     15322 TIP3     2334     TIP3     H2       HT       0.417000       1.00800           0
     15323 TIP3     2335     TIP3     OH2      OT      -0.834000       15.9994           0
     15324 TIP3     2335     TIP3     H1       HT       0.417000       1.00800           0
     15325 TIP3     2335     TIP3     H2       HT       0.417000       1.00800           0
     15326 TIP3     2336     TIP3     OH2      OT      -0.834000       15.9994           0
     15327 TIP3     2336     TIP3     H1       HT       0.417000       1.00800           0
     15328 TIP3     2336     TIP3     H2       HT       0.417000       1.00800           0
     15329 TIP3     2337     TIP3     OH2      OT      -0.834000       15.9994           0
     15330 TIP3     2337     TIP3     H1       HT       0.417000       1.00800           0
     15331 TIP3     2337     TIP3     H2       HT       0.417000       1.00800           0
     15332 TIP3     2338     TIP3     OH2      OT      -0.834000       15.9994           0
     15333 TIP3     2338     TIP3     H1       HT       0.417000       1.00800           0
     15334 TIP3     2338     TIP3     H2       HT       0.417000       1.00800           0
     15335 TIP3     2339     TIP3     OH2      OT      -0.834000       15.9994           0
     15336 TIP3     2339     TIP3     H1       HT       0.417000       1.00800           0
     15337 TIP3     2339     TIP3     H2       HT       0.417000       1.00800           0
     15338 TIP3     2340     TIP3     OH2      OT      -0.834000       15.9994           0
     15339 TIP3     2340     TIP3     H1       HT       0.417000       1.00800           0
     15340 TIP3     2340     TIP3     H2       HT       0.417000       1.00800           0
     15341 TIP3     2341     TIP3     OH2      OT      -0.834000       15.9994           0
     15342 TIP3     2341     TIP3     H1       HT       0.417000       1.00800           0
     15343 TIP3     2341     TIP3     H2       HT       0.417000       1.00800           0
     15344 TIP3     2342     TIP3     OH2      OT      -0.834000       15.9994           0
     15345 TIP3     2342     TIP3     H1       HT       0.417000       1.00800           0
     15346 TIP3     2342     TIP3     H2       HT       0.417000       1.00800           0
     15347 TIP3     2343     TIP3     OH2      OT      -0.834000       15.9994           0
     15348 TIP3     2343     TIP3     H1       HT       0.417000       1.00800           0
     15349 TIP3     2343     TIP3     H2       HT       0.417000       1.00800           0
     15350 TIP3     2344     TIP3     OH2      OT      -0.834000       15.9994           0
     15351 TIP3     2344     TIP3     H1       HT       0.417000       1.00800           0
     15352 TIP3     2344     TIP3     H2       HT       0.417000       1.00800           0
     15353 TIP3     2345     TIP3     OH2      OT      -0.834000       15.9994           0
     15354 TIP3     2345     TIP3     H1       HT       0.417000       1.00800           0
     15355 TIP3     2345     TIP3     H2       HT       0.417000       1.00800           0
     15356 TIP3     2346     TIP3     OH2      OT      -0.834000       15.9994           0
     15357 TIP3     2346     TIP3     H1       HT       0.417000       1.00800           0
     15358 TIP3     2346     TIP3     H2       HT       0.417000       1.00800           0
     15359 TIP3     2347     TIP3     OH2      OT      -0.834000       15.9994           0
     15360 TIP3     2347     TIP3     H1       HT       0.417000       1.00800           0
     15361 TIP3     2347     TIP3     H2       HT       0.417000       1.00800           0
     15362 TIP3     2348     TIP3     OH2      OT      -0.834000       15.9994           0
     15363 TIP3     2348     TIP3     H1       HT       0.417000       1.00800           0
     15364 TIP3     2348     TIP3     H2       HT       0.417000       1.00800           0
     15365 TIP3     2349     TIP3     OH2      OT      -0.834000       15.9994           0
     15366 TIP3     2349     TIP3     H1       HT       0.417000       1.00800           0
     15367 TIP3     2349     TIP3     H2       HT       0.417000       1.00800           0
     15368 TIP3     2350     TIP3     OH2      OT      -0.834000       15.9994           0
     15369 TIP3     2350     TIP3     H1       HT       0.417000       1.00800           0
     15370 TIP3     2350     TIP3     H2       HT       0.417000       1.00800           0
     15371 TIP3     2351     TIP3     OH2      OT      -0.834000       15.9994           0
     15372 TIP3     2351     TIP3     H1       HT       0.417000       1.00800           0
     15373 TIP3     2351     TIP3     H2       HT       0.417000       1.00800           0
     15374 TIP3     2352     TIP3     OH2      OT      -0.834000       15.9994           0
     15375 TIP3     2352     TIP3     H1       HT       0.417000       1.00800           0
     15376 TIP3     2352     TIP3     H2       HT       0.417000       1.00800           0
     15377 TIP3     2353     TIP3     OH2      OT      -0.834000       15.9994           0
     15378 TIP3     2353     TIP3     H1       HT       0.417000       1.00800           0
     15379 TIP3     2353     TIP3     H2       HT       0.417000       1.00800           0
     15380 TIP3     2354     TIP3     OH2      OT      -0.834000       15.9994           0
     15381 TIP3     2354     TIP3     H1       HT       0.417000       1.00800           0
     15382 TIP3     2354     TIP3     H2       HT       0.417000       1.00800           0
     15383 TIP3     2355     TIP3     OH2      OT      -0.834000       15.9994           0
     15384 TIP3     2355     TIP3     H1       HT       0.417000       1.00800           0
     15385 TIP3     2355     TIP3     H2       HT       0.417000       1.00800           0
     15386 TIP3     2356     TIP3     OH2      OT      -0.834000       15.9994           0
     15387 TIP3     2356     TIP3     H1       HT       0.417000       1.00800           0
     15388 TIP3     2356     TIP3     H2       HT       0.417000       1.00800           0
     15389 TIP3     2357     TIP3     OH2      OT      -0.834000       15.9994           0
     15390 TIP3     2357     TIP3     H1       HT       0.417000       1.00800           0
     15391 TIP3     2357     TIP3     H2       HT       0.417000       1.00800           0
     15392 TIP3     2358     TIP3     OH2      OT      -0.834000       15.9994           0
     15393 TIP3     2358     TIP3     H1       HT       0.417000       1.00800           0
     15394 TIP3     2358     TIP3     H2       HT       0.417000       1.00800           0
     15395 TIP3     2359     TIP3     OH2      OT      -0.834000       15.9994           0
     15396 TIP3     2359     TIP3     H1       HT       0.417000       1.00800           0
     15397 TIP3     2359     TIP3     H2       HT       0.417000       1.00800           0
     15398 TIP3     2360     TIP3     OH2      OT      -0.834000       15.9994           0
     15399 TIP3     2360     TIP3     H1       HT       0.417000       1.00800           0
     15400 TIP3     2360     TIP3     H2       HT       0.417000       1.00800           0
     15401 TIP3     2361     TIP3     OH2      OT      -0.834000       15.9994           0
     15402 TIP3     2361     TIP3     H1       HT       0.417000       1.00800           0
     15403 TIP3     2361     TIP3     H2       HT       0.417000       1.00800           0
     15404 TIP3     2362     TIP3     OH2      OT      -0.834000       15.9994           0
     15405 TIP3     2362     TIP3     H1       HT       0.417000       1.00800           0
     15406 TIP3     2362     TIP3     H2       HT       0.417000       1.00800           0
     15407 TIP3     2363     TIP3     OH2      OT      -0.834000       15.9994           0
     15408 TIP3     2363     TIP3     H1       HT       0.417000       1.00800           0
     15409 TIP3     2363     TIP3     H2       HT       0.417000       1.00800           0
     15410 TIP3     2364     TIP3     OH2      OT      -0.834000       15.9994           0
     15411 TIP3     2364     TIP3     H1       HT       0.417000       1.00800           0
     15412 TIP3     2364     TIP3     H2       HT       0.417000       1.00800           0
     15413 TIP3     2365     TIP3     OH2      OT      -0.834000       15.9994           0
     15414 TIP3     2365     TIP3     H1       HT       0.417000       1.00800           0
     15415 TIP3     2365     TIP3     H2       HT       0.417000       1.00800           0
     15416 TIP3     2366     TIP3     OH2      OT      -0.834000       15.9994           0
     15417 TIP3     2366     TIP3     H1       HT       0.417000       1.00800           0
     15418 TIP3     2366     TIP3     H2       HT       0.417000       1.00800           0
     15419 TIP3     2367     TIP3     OH2      OT      -0.834000       15.9994           0
     15420 TIP3     2367     TIP3     H1       HT       0.417000       1.00800           0
     15421 TIP3     2367     TIP3     H2       HT       0.417000       1.00800           0
     15422 TIP3     2368     TIP3     OH2      OT      -0.834000       15.9994           0
     15423 TIP3     2368     TIP3     H1       HT       0.417000       1.00800           0
     15424 TIP3     2368     TIP3     H2       HT       0.417000       1.00800           0
     15425 TIP3     2369     TIP3     OH2      OT      -0.834000       15.9994           0
     15426 TIP3     2369     TIP3     H1       HT       0.417000       1.00800           0
     15427 TIP3     2369     TIP3     H2       HT       0.417000       1.00800           0
     15428 TIP3     2370     TIP3     OH2      OT      -0.834000       15.9994           0
     15429 TIP3     2370     TIP3     H1       HT       0.417000       1.00800           0
     15430 TIP3     2370     TIP3     H2       HT       0.417000       1.00800           0
     15431 TIP3     2371     TIP3     OH2      OT      -0.834000       15.9994           0
     15432 TIP3     2371     TIP3     H1       HT       0.417000       1.00800           0
     15433 TIP3     2371     TIP3     H2       HT       0.417000       1.00800           0
     15434 TIP3     2372     TIP3     OH2      OT      -0.834000       15.9994           0
     15435 TIP3     2372     TIP3     H1       HT       0.417000       1.00800           0
     15436 TIP3     2372     TIP3     H2       HT       0.417000       1.00800           0
     15437 TIP3     2373     TIP3     OH2      OT      -0.834000       15.9994           0
     15438 TIP3     2373     TIP3     H1       HT       0.417000       1.00800           0
     15439 TIP3     2373     TIP3     H2       HT       0.417000       1.00800           0
     15440 TIP3     2374     TIP3     OH2      OT      -0.834000       15.9994           0
     15441 TIP3     2374     TIP3     H1       HT       0.417000       1.00800           0
     15442 TIP3     2374     TIP3     H2       HT       0.417000       1.00800           0
     15443 TIP3     2375     TIP3     OH2      OT      -0.834000       15.9994           0
     15444 TIP3     2375     TIP3     H1       HT       0.417000       1.00800           0
     15445 TIP3     2375     TIP3     H2       HT       0.417000       1.00800           0
     15446 TIP3     2376     TIP3     OH2      OT      -0.834000       15.9994           0
     15447 TIP3     2376     TIP3     H1       HT       0.417000       1.00800           0
     15448 TIP3     2376     TIP3     H2       HT       0.417000       1.00800           0
     15449 TIP3     2377     TIP3     OH2      OT      -0.834000       15.9994           0
     15450 TIP3     2377     TIP3     H1       HT       0.417000       1.00800           0
     15451 TIP3     2377     TIP3     H2       HT       0.417000       1.00800           0
     15452 TIP3     2378     TIP3     OH2      OT      -0.834000       15.9994           0
     15453 TIP3     2378     TIP3     H1       HT       0.417000       1.00800           0
     15454 TIP3     2378     TIP3     H2       HT       0.417000       1.00800           0
     15455 TIP3     2379     TIP3     OH2      OT      -0.834000       15.9994           0
     15456 TIP3     2379     TIP3     H1       HT       0.417000       1.00800           0
     15457 TIP3     2379     TIP3     H2       HT       0.417000       1.00800           0
     15458 TIP3     2380     TIP3     OH2      OT      -0.834000       15.9994           0
     15459 TIP3     2380     TIP3     H1       HT       0.417000       1.00800           0
     15460 TIP3     2380     TIP3     H2       HT       0.417000       1.00800           0
     15461 TIP3     2381     TIP3     OH2      OT      -0.834000       15.9994           0
     15462 TIP3     2381     TIP3     H1       HT       0.417000       1.00800           0
     15463 TIP3     2381     TIP3     H2       HT       0.417000       1.00800           0
     15464 TIP3     2382     TIP3     OH2      OT      -0.834000       15.9994           0
     15465 TIP3     2382     TIP3     H1       HT       0.417000       1.00800           0
     15466 TIP3     2382     TIP3     H2       HT       0.417000       1.00800           0
     15467 TIP3     2383     TIP3     OH2      OT      -0.834000       15.9994           0
     15468 TIP3     2383     TIP3     H1       HT       0.417000       1.00800           0
     15469 TIP3     2383     TIP3     H2       HT       0.417000       1.00800           0
     15470 TIP3     2384     TIP3     OH2      OT      -0.834000       15.9994           0
     15471 TIP3     2384     TIP3     H1       HT       0.417000       1.00800           0
     15472 TIP3     2384     TIP3     H2       HT       0.417000       1.00800           0
     15473 TIP3     2385     TIP3     OH2      OT      -0.834000       15.9994           0
     15474 TIP3     2385     TIP3     H1       HT       0.417000       1.00800           0
     15475 TIP3     2385     TIP3     H2       HT       0.417000       1.00800           0
     15476 TIP3     2386     TIP3     OH2      OT      -0.834000       15.9994           0
     15477 TIP3     2386     TIP3     H1       HT       0.417000       1.00800           0
     15478 TIP3     2386     TIP3     H2       HT       0.417000       1.00800           0
     15479 TIP3     2387     TIP3     OH2      OT      -0.834000       15.9994           0
     15480 TIP3     2387     TIP3     H1       HT       0.417000       1.00800           0
     15481 TIP3     2387     TIP3     H2       HT       0.417000       1.00800           0
     15482 TIP3     2388     TIP3     OH2      OT      -0.834000       15.9994           0
     15483 TIP3     2388     TIP3     H1       HT       0.417000       1.00800           0
     15484 TIP3     2388     TIP3     H2       HT       0.417000       1.00800           0
     15485 TIP3     2389     TIP3     OH2      OT      -0.834000       15.9994           0
     15486 TIP3     2389     TIP3     H1       HT       0.417000       1.00800           0
     15487 TIP3     2389     TIP3     H2       HT       0.417000       1.00800           0
     15488 TIP3     2390     TIP3     OH2      OT      -0.834000       15.9994           0
     15489 TIP3     2390     TIP3     H1       HT       0.417000       1.00800           0
     15490 TIP3     2390     TIP3     H2       HT       0.417000       1.00800           0
     15491 TIP3     2391     TIP3     OH2      OT      -0.834000       15.9994           0
     15492 TIP3     2391     TIP3     H1       HT       0.417000       1.00800           0
     15493 TIP3     2391     TIP3     H2       HT       0.417000       1.00800           0
     15494 TIP3     2392     TIP3     OH2      OT      -0.834000       15.9994           0
     15495 TIP3     2392     TIP3     H1       HT       0.417000       1.00800           0
     15496 TIP3     2392     TIP3     H2       HT       0.417000       1.00800           0
     15497 TIP3     2393     TIP3     OH2      OT      -0.834000       15.9994           0
     15498 TIP3     2393     TIP3     H1       HT       0.417000       1.00800           0
     15499 TIP3     2393     TIP3     H2       HT       0.417000       1.00800           0
     15500 TIP3     2394     TIP3     OH2      OT      -0.834000       15.9994           0
     15501 TIP3     2394     TIP3     H1       HT       0.417000       1.00800           0
     15502 TIP3     2394     TIP3     H2       HT       0.417000       1.00800           0
     15503 TIP3     2395     TIP3     OH2      OT      -0.834000       15.9994           0
     15504 TIP3     2395     TIP3     H1       HT       0.417000       1.00800           0
     15505 TIP3     2395     TIP3     H2       HT       0.417000       1.00800           0
     15506 TIP3     2396     TIP3     OH2      OT      -0.834000       15.9994           0
     15507 TIP3     2396     TIP3     H1       HT       0.417000       1.00800           0
     15508 TIP3     2396     TIP3     H2       HT       0.417000       1.00800           0
     15509 TIP3     2397     TIP3     OH2      OT      -0.834000       15.9994           0
     15510 TIP3     2397     TIP3     H1       HT       0.417000       1.00800           0
     15511 TIP3     2397     TIP3     H2       HT       0.417000       1.00800           0
     15512 TIP3     2398     TIP3     OH2      OT      -0.834000       15.9994           0
     15513 TIP3     2398     TIP3     H1       HT       0.417000       1.00800           0
     15514 TIP3     2398     TIP3     H2       HT       0.417000       1.00800           0
     15515 TIP3     2399     TIP3     OH2      OT      -0.834000       15.9994           0
     15516 TIP3     2399     TIP3     H1       HT       0.417000       1.00800           0
     15517 TIP3     2399     TIP3     H2       HT       0.417000       1.00800           0
     15518 TIP3     2400     TIP3     OH2      OT      -0.834000       15.9994           0
     15519 TIP3     2400     TIP3     H1       HT       0.417000       1.00800           0
     15520 TIP3     2400     TIP3     H2       HT       0.417000       1.00800           0
     15521 TIP3     2401     TIP3     OH2      OT      -0.834000       15.9994           0
     15522 TIP3     2401     TIP3     H1       HT       0.417000       1.00800           0
     15523 TIP3     2401     TIP3     H2       HT       0.417000       1.00800           0
     15524 TIP3     2402     TIP3     OH2      OT      -0.834000       15.9994           0
     15525 TIP3     2402     TIP3     H1       HT       0.417000       1.00800           0
     15526 TIP3     2402     TIP3     H2       HT       0.417000       1.00800           0
     15527 TIP3     2403     TIP3     OH2      OT      -0.834000       15.9994           0
     15528 TIP3     2403     TIP3     H1       HT       0.417000       1.00800           0
     15529 TIP3     2403     TIP3     H2       HT       0.417000       1.00800           0
     15530 TIP3     2404     TIP3     OH2      OT      -0.834000       15.9994           0
     15531 TIP3     2404     TIP3     H1       HT       0.417000       1.00800           0
     15532 TIP3     2404     TIP3     H2       HT       0.417000       1.00800           0
     15533 TIP3     2405     TIP3     OH2      OT      -0.834000       15.9994           0
     15534 TIP3     2405     TIP3     H1       HT       0.417000       1.00800           0
     15535 TIP3     2405     TIP3     H2       HT       0.417000       1.00800           0
     15536 TIP3     2406     TIP3     OH2      OT      -0.834000       15.9994           0
     15537 TIP3     2406     TIP3     H1       HT       0.417000       1.00800           0
     15538 TIP3     2406     TIP3     H2       HT       0.417000       1.00800           0
     15539 TIP3     2407     TIP3     OH2      OT      -0.834000       15.9994           0
     15540 TIP3     2407     TIP3     H1       HT       0.417000       1.00800           0
     15541 TIP3     2407     TIP3     H2       HT       0.417000       1.00800           0
     15542 TIP3     2408     TIP3     OH2      OT      -0.834000       15.9994           0
     15543 TIP3     2408     TIP3     H1       HT       0.417000       1.00800           0
     15544 TIP3     2408     TIP3     H2       HT       0.417000       1.00800           0
     15545 TIP3     2409     TIP3     OH2      OT      -0.834000       15.9994           0
     15546 TIP3     2409     TIP3     H1       HT       0.417000       1.00800           0
     15547 TIP3     2409     TIP3     H2       HT       0.417000       1.00800           0
     15548 TIP3     2410     TIP3     OH2      OT      -0.834000       15.9994           0
     15549 TIP3     2410     TIP3     H1       HT       0.417000       1.00800           0
     15550 TIP3     2410     TIP3     H2       HT       0.417000       1.00800           0
     15551 TIP3     2411     TIP3     OH2      OT      -0.834000       15.9994           0
     15552 TIP3     2411     TIP3     H1       HT       0.417000       1.00800           0
     15553 TIP3     2411     TIP3     H2       HT       0.417000       1.00800           0
     15554 TIP3     2412     TIP3     OH2      OT      -0.834000       15.9994           0
     15555 TIP3     2412     TIP3     H1       HT       0.417000       1.00800           0
     15556 TIP3     2412     TIP3     H2       HT       0.417000       1.00800           0
     15557 TIP3     2413     TIP3     OH2      OT      -0.834000       15.9994           0
     15558 TIP3     2413     TIP3     H1       HT       0.417000       1.00800           0
     15559 TIP3     2413     TIP3     H2       HT       0.417000       1.00800           0
     15560 TIP3     2414     TIP3     OH2      OT      -0.834000       15.9994           0
     15561 TIP3     2414     TIP3     H1       HT       0.417000       1.00800           0
     15562 TIP3     2414     TIP3     H2       HT       0.417000       1.00800           0
     15563 TIP3     2415     TIP3     OH2      OT      -0.834000       15.9994           0
     15564 TIP3     2415     TIP3     H1       HT       0.417000       1.00800           0
     15565 TIP3     2415     TIP3     H2       HT       0.417000       1.00800           0
     15566 TIP3     2416     TIP3     OH2      OT      -0.834000       15.9994           0
     15567 TIP3     2416     TIP3     H1       HT       0.417000       1.00800           0
     15568 TIP3     2416     TIP3     H2       HT       0.417000       1.00800           0
     15569 TIP3     2417     TIP3     OH2      OT      -0.834000       15.9994           0
     15570 TIP3     2417     TIP3     H1       HT       0.417000       1.00800           0
     15571 TIP3     2417     TIP3     H2       HT       0.417000       1.00800           0
     15572 TIP3     2418     TIP3     OH2      OT      -0.834000       15.9994           0
     15573 TIP3     2418     TIP3     H1       HT       0.417000       1.00800           0
     15574 TIP3     2418     TIP3     H2       HT       0.417000       1.00800           0
     15575 TIP3     2419     TIP3     OH2      OT      -0.834000       15.9994           0
     15576 TIP3     2419     TIP3     H1       HT       0.417000       1.00800           0
     15577 TIP3     2419     TIP3     H2       HT       0.417000       1.00800           0
     15578 TIP3     2420     TIP3     OH2      OT      -0.834000       15.9994           0
     15579 TIP3     2420     TIP3     H1       HT       0.417000       1.00800           0
     15580 TIP3     2420     TIP3     H2       HT       0.417000       1.00800           0
     15581 TIP3     2421     TIP3     OH2      OT      -0.834000       15.9994           0
     15582 TIP3     2421     TIP3     H1       HT       0.417000       1.00800           0
     15583 TIP3     2421     TIP3     H2       HT       0.417000       1.00800           0
     15584 TIP3     2422     TIP3     OH2      OT      -0.834000       15.9994           0
     15585 TIP3     2422     TIP3     H1       HT       0.417000       1.00800           0
     15586 TIP3     2422     TIP3     H2       HT       0.417000       1.00800           0
     15587 TIP3     2423     TIP3     OH2      OT      -0.834000       15.9994           0
     15588 TIP3     2423     TIP3     H1       HT       0.417000       1.00800           0
     15589 TIP3     2423     TIP3     H2       HT       0.417000       1.00800           0
     15590 TIP3     2424     TIP3     OH2      OT      -0.834000       15.9994           0
     15591 TIP3     2424     TIP3     H1       HT       0.417000       1.00800           0
     15592 TIP3     2424     TIP3     H2       HT       0.417000       1.00800           0
     15593 TIP3     2425     TIP3     OH2      OT      -0.834000       15.9994           0
     15594 TIP3     2425     TIP3     H1       HT       0.417000       1.00800           0
     15595 TIP3     2425     TIP3     H2       HT       0.417000       1.00800           0
     15596 TIP3     2426     TIP3     OH2      OT      -0.834000       15.9994           0
     15597 TIP3     2426     TIP3     H1       HT       0.417000       1.00800           0
     15598 TIP3     2426     TIP3     H2       HT       0.417000       1.00800           0
     15599 TIP3     2427     TIP3     OH2      OT      -0.834000       15.9994           0
     15600 TIP3     2427     TIP3     H1       HT       0.417000       1.00800           0
     15601 TIP3     2427     TIP3     H2       HT       0.417000       1.00800           0
     15602 TIP3     2428     TIP3     OH2      OT      -0.834000       15.9994           0
     15603 TIP3     2428     TIP3     H1       HT       0.417000       1.00800           0
     15604 TIP3     2428     TIP3     H2       HT       0.417000       1.00800           0
     15605 TIP3     2429     TIP3     OH2      OT      -0.834000       15.9994           0
     15606 TIP3     2429     TIP3     H1       HT       0.417000       1.00800           0
     15607 TIP3     2429     TIP3     H2       HT       0.417000       1.00800           0
     15608 TIP3     2430     TIP3     OH2      OT      -0.834000       15.9994           0
     15609 TIP3     2430     TIP3     H1       HT       0.417000       1.00800           0
     15610 TIP3     2430     TIP3     H2       HT       0.417000       1.00800           0
     15611 TIP3     2431     TIP3     OH2      OT      -0.834000       15.9994           0
     15612 TIP3     2431     TIP3     H1       HT       0.417000       1.00800           0
     15613 TIP3     2431     TIP3     H2       HT       0.417000       1.00800           0
     15614 TIP3     2432     TIP3     OH2      OT      -0.834000       15.9994           0
     15615 TIP3     2432     TIP3     H1       HT       0.417000       1.00800           0
     15616 TIP3     2432     TIP3     H2       HT       0.417000       1.00800           0
     15617 TIP3     2433     TIP3     OH2      OT      -0.834000       15.9994           0
     15618 TIP3     2433     TIP3     H1       HT       0.417000       1.00800           0
     15619 TIP3     2433     TIP3     H2       HT       0.417000       1.00800           0
     15620 TIP3     2434     TIP3     OH2      OT      -0.834000       15.9994           0
     15621 TIP3     2434     TIP3     H1       HT       0.417000       1.00800           0
     15622 TIP3     2434     TIP3     H2       HT       0.417000       1.00800           0
     15623 TIP3     2435     TIP3     OH2      OT      -0.834000       15.9994           0
     15624 TIP3     2435     TIP3     H1       HT       0.417000       1.00800           0
     15625 TIP3     2435     TIP3     H2       HT       0.417000       1.00800           0
     15626 TIP3     2436     TIP3     OH2      OT      -0.834000       15.9994           0
     15627 TIP3     2436     TIP3     H1       HT       0.417000       1.00800           0
     15628 TIP3     2436     TIP3     H2       HT       0.417000       1.00800           0
     15629 TIP3     2437     TIP3     OH2      OT      -0.834000       15.9994           0
     15630 TIP3     2437     TIP3     H1       HT       0.417000       1.00800           0
     15631 TIP3     2437     TIP3     H2       HT       0.417000       1.00800           0
     15632 TIP3     2438     TIP3     OH2      OT      -0.834000       15.9994           0
     15633 TIP3     2438     TIP3     H1       HT       0.417000       1.00800           0
     15634 TIP3     2438     TIP3     H2       HT       0.417000       1.00800           0
     15635 TIP3     2439     TIP3     OH2      OT      -0.834000       15.9994           0
     15636 TIP3     2439     TIP3     H1       HT       0.417000       1.00800           0
     15637 TIP3     2439     TIP3     H2       HT       0.417000       1.00800           0
     15638 TIP3     2440     TIP3     OH2      OT      -0.834000       15.9994           0
     15639 TIP3     2440     TIP3     H1       HT       0.417000       1.00800           0
     15640 TIP3     2440     TIP3     H2       HT       0.417000       1.00800           0
     15641 TIP3     2441     TIP3     OH2      OT      -0.834000       15.9994           0
     15642 TIP3     2441     TIP3     H1       HT       0.417000       1.00800           0
     15643 TIP3     2441     TIP3     H2       HT       0.417000       1.00800           0
     15644 TIP3     2442     TIP3     OH2      OT      -0.834000       15.9994           0
     15645 TIP3     2442     TIP3     H1       HT       0.417000       1.00800           0
     15646 TIP3     2442     TIP3     H2       HT       0.417000       1.00800           0
     15647 TIP3     2443     TIP3     OH2      OT      -0.834000       15.9994           0
     15648 TIP3     2443     TIP3     H1       HT       0.417000       1.00800           0
     15649 TIP3     2443     TIP3     H2       HT       0.417000       1.00800           0
     15650 TIP3     2444     TIP3     OH2      OT      -0.834000       15.9994           0
     15651 TIP3     2444     TIP3     H1       HT       0.417000       1.00800           0
     15652 TIP3     2444     TIP3     H2       HT       0.417000       1.00800           0
     15653 TIP3     2445     TIP3     OH2      OT      -0.834000       15.9994           0
     15654 TIP3     2445     TIP3     H1       HT       0.417000       1.00800           0
     15655 TIP3     2445     TIP3     H2       HT       0.417000       1.00800           0
     15656 TIP3     2446     TIP3     OH2      OT      -0.834000       15.9994           0
     15657 TIP3     2446     TIP3     H1       HT       0.417000       1.00800           0
     15658 TIP3     2446     TIP3     H2       HT       0.417000       1.00800           0
     15659 TIP3     2447     TIP3     OH2      OT      -0.834000       15.9994           0
     15660 TIP3     2447     TIP3     H1       HT       0.417000       1.00800           0
     15661 TIP3     2447     TIP3     H2       HT       0.417000       1.00800           0
     15662 TIP3     2448     TIP3     OH2      OT      -0.834000       15.9994           0
     15663 TIP3     2448     TIP3     H1       HT       0.417000       1.00800           0
     15664 TIP3     2448     TIP3     H2       HT       0.417000       1.00800           0
     15665 TIP3     2449     TIP3     OH2      OT      -0.834000       15.9994           0
     15666 TIP3     2449     TIP3     H1       HT       0.417000       1.00800           0
     15667 TIP3     2449     TIP3     H2       HT       0.417000       1.00800           0
     15668 TIP3     2450     TIP3     OH2      OT      -0.834000       15.9994           0
     15669 TIP3     2450     TIP3     H1       HT       0.417000       1.00800           0
     15670 TIP3     2450     TIP3     H2       HT       0.417000       1.00800           0
     15671 TIP3     2451     TIP3     OH2      OT      -0.834000       15.9994           0
     15672 TIP3     2451     TIP3     H1       HT       0.417000       1.00800           0
     15673 TIP3     2451     TIP3     H2       HT       0.417000       1.00800           0
     15674 TIP3     2452     TIP3     OH2      OT      -0.834000       15.9994           0
     15675 TIP3     2452     TIP3     H1       HT       0.417000       1.00800           0
     15676 TIP3     2452     TIP3     H2       HT       0.417000       1.00800           0
     15677 TIP3     2453     TIP3     OH2      OT      -0.834000       15.9994           0
     15678 TIP3     2453     TIP3     H1       HT       0.417000       1.00800           0
     15679 TIP3     2453     TIP3     H2       HT       0.417000       1.00800           0
     15680 TIP3     2454     TIP3     OH2      OT      -0.834000       15.9994           0
     15681 TIP3     2454     TIP3     H1       HT       0.417000       1.00800           0
     15682 TIP3     2454     TIP3     H2       HT       0.417000       1.00800           0
     15683 TIP3     2455     TIP3     OH2      OT      -0.834000       15.9994           0
     15684 TIP3     2455     TIP3     H1       HT       0.417000       1.00800           0
     15685 TIP3     2455     TIP3     H2       HT       0.417000       1.00800           0
     15686 TIP3     2456     TIP3     OH2      OT      -0.834000       15.9994           0
     15687 TIP3     2456     TIP3     H1       HT       0.417000       1.00800           0
     15688 TIP3     2456     TIP3     H2       HT       0.417000       1.00800           0
     15689 TIP3     2457     TIP3     OH2      OT      -0.834000       15.9994           0
     15690 TIP3     2457     TIP3     H1       HT       0.417000       1.00800           0
     15691 TIP3     2457     TIP3     H2       HT       0.417000       1.00800           0
     15692 TIP3     2458     TIP3     OH2      OT      -0.834000       15.9994           0
     15693 TIP3     2458     TIP3     H1       HT       0.417000       1.00800           0
     15694 TIP3     2458     TIP3     H2       HT       0.417000       1.00800           0
     15695 TIP3     2459     TIP3     OH2      OT      -0.834000       15.9994           0
     15696 TIP3     2459     TIP3     H1       HT       0.417000       1.00800           0
     15697 TIP3     2459     TIP3     H2       HT       0.417000       1.00800           0
     15698 TIP3     2460     TIP3     OH2      OT      -0.834000       15.9994           0
     15699 TIP3     2460     TIP3     H1       HT       0.417000       1.00800           0
     15700 TIP3     2460     TIP3     H2       HT       0.417000       1.00800           0
     15701 TIP3     2461     TIP3     OH2      OT      -0.834000       15.9994           0
     15702 TIP3     2461     TIP3     H1       HT       0.417000       1.00800           0
     15703 TIP3     2461     TIP3     H2       HT       0.417000       1.00800           0
     15704 TIP3     2462     TIP3     OH2      OT      -0.834000       15.9994           0
     15705 TIP3     2462     TIP3     H1       HT       0.417000       1.00800           0
     15706 TIP3     2462     TIP3     H2       HT       0.417000       1.00800           0
     15707 TIP3     2463     TIP3     OH2      OT      -0.834000       15.9994           0
     15708 TIP3     2463     TIP3     H1       HT       0.417000       1.00800           0
     15709 TIP3     2463     TIP3     H2       HT       0.417000       1.00800           0
     15710 TIP3     2464     TIP3     OH2      OT      -0.834000       15.9994           0
     15711 TIP3     2464     TIP3     H1       HT       0.417000       1.00800           0
     15712 TIP3     2464     TIP3     H2       HT       0.417000       1.00800           0
     15713 TIP3     2465     TIP3     OH2      OT      -0.834000       15.9994           0
     15714 TIP3     2465     TIP3     H1       HT       0.417000       1.00800           0
     15715 TIP3     2465     TIP3     H2       HT       0.417000       1.00800           0
     15716 TIP3     2466     TIP3     OH2      OT      -0.834000       15.9994           0
     15717 TIP3     2466     TIP3     H1       HT       0.417000       1.00800           0
     15718 TIP3     2466     TIP3     H2       HT       0.417000       1.00800           0
     15719 TIP3     2467     TIP3     OH2      OT      -0.834000       15.9994           0
     15720 TIP3     2467     TIP3     H1       HT       0.417000       1.00800           0
     15721 TIP3     2467     TIP3     H2       HT       0.417000       1.00800           0
     15722 TIP3     2468     TIP3     OH2      OT      -0.834000       15.9994           0
     15723 TIP3     2468     TIP3     H1       HT       0.417000       1.00800           0
     15724 TIP3     2468     TIP3     H2       HT       0.417000       1.00800           0
     15725 TIP3     2469     TIP3     OH2      OT      -0.834000       15.9994           0
     15726 TIP3     2469     TIP3     H1       HT       0.417000       1.00800           0
     15727 TIP3     2469     TIP3     H2       HT       0.417000       1.00800           0
     15728 TIP3     2470     TIP3     OH2      OT      -0.834000       15.9994           0
     15729 TIP3     2470     TIP3     H1       HT       0.417000       1.00800           0
     15730 TIP3     2470     TIP3     H2       HT       0.417000       1.00800           0
     15731 TIP3     2471     TIP3     OH2      OT      -0.834000       15.9994           0
     15732 TIP3     2471     TIP3     H1       HT       0.417000       1.00800           0
     15733 TIP3     2471     TIP3     H2       HT       0.417000       1.00800           0
     15734 TIP3     2472     TIP3     OH2      OT      -0.834000       15.9994           0
     15735 TIP3     2472     TIP3     H1       HT       0.417000       1.00800           0
     15736 TIP3     2472     TIP3     H2       HT       0.417000       1.00800           0
     15737 TIP3     2473     TIP3     OH2      OT      -0.834000       15.9994           0
     15738 TIP3     2473     TIP3     H1       HT       0.417000       1.00800           0
     15739 TIP3     2473     TIP3     H2       HT       0.417000       1.00800           0
     15740 TIP3     2474     TIP3     OH2      OT      -0.834000       15.9994           0
     15741 TIP3     2474     TIP3     H1       HT       0.417000       1.00800           0
     15742 TIP3     2474     TIP3     H2       HT       0.417000       1.00800           0
     15743 TIP3     2475     TIP3     OH2      OT      -0.834000       15.9994           0
     15744 TIP3     2475     TIP3     H1       HT       0.417000       1.00800           0
     15745 TIP3     2475     TIP3     H2       HT       0.417000       1.00800           0
     15746 TIP3     2476     TIP3     OH2      OT      -0.834000       15.9994           0
     15747 TIP3     2476     TIP3     H1       HT       0.417000       1.00800           0
     15748 TIP3     2476     TIP3     H2       HT       0.417000       1.00800           0
     15749 TIP3     2477     TIP3     OH2      OT      -0.834000       15.9994           0
     15750 TIP3     2477     TIP3     H1       HT       0.417000       1.00800           0
     15751 TIP3     2477     TIP3     H2       HT       0.417000       1.00800           0
     15752 TIP3     2478     TIP3     OH2      OT      -0.834000       15.9994           0
     15753 TIP3     2478     TIP3     H1       HT       0.417000       1.00800           0
     15754 TIP3     2478     TIP3     H2       HT       0.417000       1.00800           0
     15755 TIP3     2479     TIP3     OH2      OT      -0.834000       15.9994           0
     15756 TIP3     2479     TIP3     H1       HT       0.417000       1.00800           0
     15757 TIP3     2479     TIP3     H2       HT       0.417000       1.00800           0
     15758 TIP3     2480     TIP3     OH2      OT      -0.834000       15.9994           0
     15759 TIP3     2480     TIP3     H1       HT       0.417000       1.00800           0
     15760 TIP3     2480     TIP3     H2       HT       0.417000       1.00800           0
     15761 TIP3     2481     TIP3     OH2      OT      -0.834000       15.9994           0
     15762 TIP3     2481     TIP3     H1       HT       0.417000       1.00800           0
     15763 TIP3     2481     TIP3     H2       HT       0.417000       1.00800           0
     15764 TIP3     2482     TIP3     OH2      OT      -0.834000       15.9994           0
     15765 TIP3     2482     TIP3     H1       HT       0.417000       1.00800           0
     15766 TIP3     2482     TIP3     H2       HT       0.417000       1.00800           0
     15767 TIP3     2483     TIP3     OH2      OT      -0.834000       15.9994           0
     15768 TIP3     2483     TIP3     H1       HT       0.417000       1.00800           0
     15769 TIP3     2483     TIP3     H2       HT       0.417000       1.00800           0
     15770 TIP3     2484     TIP3     OH2      OT      -0.834000       15.9994           0
     15771 TIP3     2484     TIP3     H1       HT       0.417000       1.00800           0
     15772 TIP3     2484     TIP3     H2       HT       0.417000       1.00800           0
     15773 TIP3     2485     TIP3     OH2      OT      -0.834000       15.9994           0
     15774 TIP3     2485     TIP3     H1       HT       0.417000       1.00800           0
     15775 TIP3     2485     TIP3     H2       HT       0.417000       1.00800           0
     15776 TIP3     2486     TIP3     OH2      OT      -0.834000       15.9994           0
     15777 TIP3     2486     TIP3     H1       HT       0.417000       1.00800           0
     15778 TIP3     2486     TIP3     H2       HT       0.417000       1.00800           0
     15779 TIP3     2487     TIP3     OH2      OT      -0.834000       15.9994           0
     15780 TIP3     2487     TIP3     H1       HT       0.417000       1.00800           0
     15781 TIP3     2487     TIP3     H2       HT       0.417000       1.00800           0
     15782 TIP3     2488     TIP3     OH2      OT      -0.834000       15.9994           0
     15783 TIP3     2488     TIP3     H1       HT       0.417000       1.00800           0
     15784 TIP3     2488     TIP3     H2       HT       0.417000       1.00800           0
     15785 TIP3     2489     TIP3     OH2      OT      -0.834000       15.9994           0
     15786 TIP3     2489     TIP3     H1       HT       0.417000       1.00800           0
     15787 TIP3     2489     TIP3     H2       HT       0.417000       1.00800           0
     15788 TIP3     2490     TIP3     OH2      OT      -0.834000       15.9994           0
     15789 TIP3     2490     TIP3     H1       HT       0.417000       1.00800           0
     15790 TIP3     2490     TIP3     H2       HT       0.417000       1.00800           0
     15791 TIP3     2491     TIP3     OH2      OT      -0.834000       15.9994           0
     15792 TIP3     2491     TIP3     H1       HT       0.417000       1.00800           0
     15793 TIP3     2491     TIP3     H2       HT       0.417000       1.00800           0
     15794 TIP3     2492     TIP3     OH2      OT      -0.834000       15.9994           0
     15795 TIP3     2492     TIP3     H1       HT       0.417000       1.00800           0
     15796 TIP3     2492     TIP3     H2       HT       0.417000       1.00800           0
     15797 TIP3     2493     TIP3     OH2      OT      -0.834000       15.9994           0
     15798 TIP3     2493     TIP3     H1       HT       0.417000       1.00800           0
     15799 TIP3     2493     TIP3     H2       HT       0.417000       1.00800           0
     15800 TIP3     2494     TIP3     OH2      OT      -0.834000       15.9994           0
     15801 TIP3     2494     TIP3     H1       HT       0.417000       1.00800           0
     15802 TIP3     2494     TIP3     H2       HT       0.417000       1.00800           0
     15803 TIP3     2495     TIP3     OH2      OT      -0.834000       15.9994           0
     15804 TIP3     2495     TIP3     H1       HT       0.417000       1.00800           0
     15805 TIP3     2495     TIP3     H2       HT       0.417000       1.00800           0
     15806 TIP3     2496     TIP3     OH2      OT      -0.834000       15.9994           0
     15807 TIP3     2496     TIP3     H1       HT       0.417000       1.00800           0
     15808 TIP3     2496     TIP3     H2       HT       0.417000       1.00800           0
     15809 TIP3     2497     TIP3     OH2      OT      -0.834000       15.9994           0
     15810 TIP3     2497     TIP3     H1       HT       0.417000       1.00800           0
     15811 TIP3     2497     TIP3     H2       HT       0.417000       1.00800           0
     15812 TIP3     2498     TIP3     OH2      OT      -0.834000       15.9994           0
     15813 TIP3     2498     TIP3     H1       HT       0.417000       1.00800           0
     15814 TIP3     2498     TIP3     H2       HT       0.417000       1.00800           0
     15815 TIP3     2499     TIP3     OH2      OT      -0.834000       15.9994           0
     15816 TIP3     2499     TIP3     H1       HT       0.417000       1.00800           0
     15817 TIP3     2499     TIP3     H2       HT       0.417000       1.00800           0
     15818 TIP3     2500     TIP3     OH2      OT      -0.834000       15.9994           0
     15819 TIP3     2500     TIP3     H1       HT       0.417000       1.00800           0
     15820 TIP3     2500     TIP3     H2       HT       0.417000       1.00800           0
     15821 TIP3     2501     TIP3     OH2      OT      -0.834000       15.9994           0
     15822 TIP3     2501     TIP3     H1       HT       0.417000       1.00800           0
     15823 TIP3     2501     TIP3     H2       HT       0.417000       1.00800           0
     15824 TIP3     2502     TIP3     OH2      OT      -0.834000       15.9994           0
     15825 TIP3     2502     TIP3     H1       HT       0.417000       1.00800           0
     15826 TIP3     2502     TIP3     H2       HT       0.417000       1.00800           0
     15827 TIP3     2503     TIP3     OH2      OT      -0.834000       15.9994           0
     15828 TIP3     2503     TIP3     H1       HT       0.417000       1.00800           0
     15829 TIP3     2503     TIP3     H2       HT       0.417000       1.00800           0
     15830 TIP3     2504     TIP3     OH2      OT      -0.834000       15.9994           0
     15831 TIP3     2504     TIP3     H1       HT       0.417000       1.00800           0
     15832 TIP3     2504     TIP3     H2       HT       0.417000       1.00800           0
     15833 TIP3     2505     TIP3     OH2      OT      -0.834000       15.9994           0
     15834 TIP3     2505     TIP3     H1       HT       0.417000       1.00800           0
     15835 TIP3     2505     TIP3     H2       HT       0.417000       1.00800           0
     15836 TIP3     2506     TIP3     OH2      OT      -0.834000       15.9994           0
     15837 TIP3     2506     TIP3     H1       HT       0.417000       1.00800           0
     15838 TIP3     2506     TIP3     H2       HT       0.417000       1.00800           0
     15839 TIP3     2507     TIP3     OH2      OT      -0.834000       15.9994           0
     15840 TIP3     2507     TIP3     H1       HT       0.417000       1.00800           0
     15841 TIP3     2507     TIP3     H2       HT       0.417000       1.00800           0
     15842 TIP3     2508     TIP3     OH2      OT      -0.834000       15.9994           0
     15843 TIP3     2508     TIP3     H1       HT       0.417000       1.00800           0
     15844 TIP3     2508     TIP3     H2       HT       0.417000       1.00800           0
     15845 TIP3     2509     TIP3     OH2      OT      -0.834000       15.9994           0
     15846 TIP3     2509     TIP3     H1       HT       0.417000       1.00800           0
     15847 TIP3     2509     TIP3     H2       HT       0.417000       1.00800           0
     15848 TIP3     2510     TIP3     OH2      OT      -0.834000       15.9994           0
     15849 TIP3     2510     TIP3     H1       HT       0.417000       1.00800           0
     15850 TIP3     2510     TIP3     H2       HT       0.417000       1.00800           0
     15851 TIP3     2511     TIP3     OH2      OT      -0.834000       15.9994           0
     15852 TIP3     2511     TIP3     H1       HT       0.417000       1.00800           0
     15853 TIP3     2511     TIP3     H2       HT       0.417000       1.00800           0
     15854 TIP3     2512     TIP3     OH2      OT      -0.834000       15.9994           0
     15855 TIP3     2512     TIP3     H1       HT       0.417000       1.00800           0
     15856 TIP3     2512     TIP3     H2       HT       0.417000       1.00800           0
     15857 TIP3     2513     TIP3     OH2      OT      -0.834000       15.9994           0
     15858 TIP3     2513     TIP3     H1       HT       0.417000       1.00800           0
     15859 TIP3     2513     TIP3     H2       HT       0.417000       1.00800           0
     15860 TIP3     2514     TIP3     OH2      OT      -0.834000       15.9994           0
     15861 TIP3     2514     TIP3     H1       HT       0.417000       1.00800           0
     15862 TIP3     2514     TIP3     H2       HT       0.417000       1.00800           0
     15863 TIP3     2515     TIP3     OH2      OT      -0.834000       15.9994           0
     15864 TIP3     2515     TIP3     H1       HT       0.417000       1.00800           0
     15865 TIP3     2515     TIP3     H2       HT       0.417000       1.00800           0
     15866 TIP3     2516     TIP3     OH2      OT      -0.834000       15.9994           0
     15867 TIP3     2516     TIP3     H1       HT       0.417000       1.00800           0
     15868 TIP3     2516     TIP3     H2       HT       0.417000       1.00800           0
     15869 TIP3     2517     TIP3     OH2      OT      -0.834000       15.9994           0
     15870 TIP3     2517     TIP3     H1       HT       0.417000       1.00800           0
     15871 TIP3     2517     TIP3     H2       HT       0.417000       1.00800           0
     15872 TIP3     2518     TIP3     OH2      OT      -0.834000       15.9994           0
     15873 TIP3     2518     TIP3     H1       HT       0.417000       1.00800           0
     15874 TIP3     2518     TIP3     H2       HT       0.417000       1.00800           0
     15875 TIP3     2519     TIP3     OH2      OT      -0.834000       15.9994           0
     15876 TIP3     2519     TIP3     H1       HT       0.417000       1.00800           0
     15877 TIP3     2519     TIP3     H2       HT       0.417000       1.00800           0
     15878 TIP3     2520     TIP3     OH2      OT      -0.834000       15.9994           0
     15879 TIP3     2520     TIP3     H1       HT       0.417000       1.00800           0
     15880 TIP3     2520     TIP3     H2       HT       0.417000       1.00800           0
     15881 TIP3     2521     TIP3     OH2      OT      -0.834000       15.9994           0
     15882 TIP3     2521     TIP3     H1       HT       0.417000       1.00800           0
     15883 TIP3     2521     TIP3     H2       HT       0.417000       1.00800           0
     15884 TIP3     2522     TIP3     OH2      OT      -0.834000       15.9994           0
     15885 TIP3     2522     TIP3     H1       HT       0.417000       1.00800           0
     15886 TIP3     2522     TIP3     H2       HT       0.417000       1.00800           0
     15887 TIP3     2523     TIP3     OH2      OT      -0.834000       15.9994           0
     15888 TIP3     2523     TIP3     H1       HT       0.417000       1.00800           0
     15889 TIP3     2523     TIP3     H2       HT       0.417000       1.00800           0
     15890 TIP3     2524     TIP3     OH2      OT      -0.834000       15.9994           0
     15891 TIP3     2524     TIP3     H1       HT       0.417000       1.00800           0
     15892 TIP3     2524     TIP3     H2       HT       0.417000       1.00800           0
     15893 TIP3     2525     TIP3     OH2      OT      -0.834000       15.9994           0
     15894 TIP3     2525     TIP3     H1       HT       0.417000       1.00800           0
     15895 TIP3     2525     TIP3     H2       HT       0.417000       1.00800           0
     15896 TIP3     2526     TIP3     OH2      OT      -0.834000       15.9994           0
     15897 TIP3     2526     TIP3     H1       HT       0.417000       1.00800           0
     15898 TIP3     2526     TIP3     H2       HT       0.417000       1.00800           0
     15899 TIP3     2527     TIP3     OH2      OT      -0.834000       15.9994           0
     15900 TIP3     2527     TIP3     H1       HT       0.417000       1.00800           0
     15901 TIP3     2527     TIP3     H2       HT       0.417000       1.00800           0
     15902 TIP3     2528     TIP3     OH2      OT      -0.834000       15.9994           0
     15903 TIP3     2528     TIP3     H1       HT       0.417000       1.00800           0
     15904 TIP3     2528     TIP3     H2       HT       0.417000       1.00800           0
     15905 TIP3     2529     TIP3     OH2      OT      -0.834000       15.9994           0
     15906 TIP3     2529     TIP3     H1       HT       0.417000       1.00800           0
     15907 TIP3     2529     TIP3     H2       HT       0.417000       1.00800           0
     15908 TIP3     2530     TIP3     OH2      OT      -0.834000       15.9994           0
     15909 TIP3     2530     TIP3     H1       HT       0.417000       1.00800           0
     15910 TIP3     2530     TIP3     H2       HT       0.417000       1.00800           0
     15911 TIP3     2531     TIP3     OH2      OT      -0.834000       15.9994           0
     15912 TIP3     2531     TIP3     H1       HT       0.417000       1.00800           0
     15913 TIP3     2531     TIP3     H2       HT       0.417000       1.00800           0
     15914 TIP3     2532     TIP3     OH2      OT      -0.834000       15.9994           0
     15915 TIP3     2532     TIP3     H1       HT       0.417000       1.00800           0
     15916 TIP3     2532     TIP3     H2       HT       0.417000       1.00800           0
     15917 TIP3     2533     TIP3     OH2      OT      -0.834000       15.9994           0
     15918 TIP3     2533     TIP3     H1       HT       0.417000       1.00800           0
     15919 TIP3     2533     TIP3     H2       HT       0.417000       1.00800           0
     15920 TIP3     2534     TIP3     OH2      OT      -0.834000       15.9994           0
     15921 TIP3     2534     TIP3     H1       HT       0.417000       1.00800           0
     15922 TIP3     2534     TIP3     H2       HT       0.417000       1.00800           0
     15923 TIP3     2535     TIP3     OH2      OT      -0.834000       15.9994           0
     15924 TIP3     2535     TIP3     H1       HT       0.417000       1.00800           0
     15925 TIP3     2535     TIP3     H2       HT       0.417000       1.00800           0
     15926 TIP3     2536     TIP3     OH2      OT      -0.834000       15.9994           0
     15927 TIP3     2536     TIP3     H1       HT       0.417000       1.00800           0
     15928 TIP3     2536     TIP3     H2       HT       0.417000       1.00800           0
     15929 TIP3     2537     TIP3     OH2      OT      -0.834000       15.9994           0
     15930 TIP3     2537     TIP3     H1       HT       0.417000       1.00800           0
     15931 TIP3     2537     TIP3     H2       HT       0.417000       1.00800           0
     15932 TIP3     2538     TIP3     OH2      OT      -0.834000       15.9994           0
     15933 TIP3     2538     TIP3     H1       HT       0.417000       1.00800           0
     15934 TIP3     2538     TIP3     H2       HT       0.417000       1.00800           0
     15935 TIP3     2539     TIP3     OH2      OT      -0.834000       15.9994           0
     15936 TIP3     2539     TIP3     H1       HT       0.417000       1.00800           0
     15937 TIP3     2539     TIP3     H2       HT       0.417000       1.00800           0
     15938 TIP3     2540     TIP3     OH2      OT      -0.834000       15.9994           0
     15939 TIP3     2540     TIP3     H1       HT       0.417000       1.00800           0
     15940 TIP3     2540     TIP3     H2       HT       0.417000       1.00800           0
     15941 TIP3     2541     TIP3     OH2      OT      -0.834000       15.9994           0
     15942 TIP3     2541     TIP3     H1       HT       0.417000       1.00800           0
     15943 TIP3     2541     TIP3     H2       HT       0.417000       1.00800           0
     15944 TIP3     2542     TIP3     OH2      OT      -0.834000       15.9994           0
     15945 TIP3     2542     TIP3     H1       HT       0.417000       1.00800           0
     15946 TIP3     2542     TIP3     H2       HT       0.417000       1.00800           0
     15947 TIP3     2543     TIP3     OH2      OT      -0.834000       15.9994           0
     15948 TIP3     2543     TIP3     H1       HT       0.417000       1.00800           0
     15949 TIP3     2543     TIP3     H2       HT       0.417000       1.00800           0
     15950 TIP3     2544     TIP3     OH2      OT      -0.834000       15.9994           0
     15951 TIP3     2544     TIP3     H1       HT       0.417000       1.00800           0
     15952 TIP3     2544     TIP3     H2       HT       0.417000       1.00800           0
     15953 TIP3     2545     TIP3     OH2      OT      -0.834000       15.9994           0
     15954 TIP3     2545     TIP3     H1       HT       0.417000       1.00800           0
     15955 TIP3     2545     TIP3     H2       HT       0.417000       1.00800           0
     15956 TIP3     2546     TIP3     OH2      OT      -0.834000       15.9994           0
     15957 TIP3     2546     TIP3     H1       HT       0.417000       1.00800           0
     15958 TIP3     2546     TIP3     H2       HT       0.417000       1.00800           0
     15959 TIP3     2547     TIP3     OH2      OT      -0.834000       15.9994           0
     15960 TIP3     2547     TIP3     H1       HT       0.417000       1.00800           0
     15961 TIP3     2547     TIP3     H2       HT       0.417000       1.00800           0
     15962 TIP3     2548     TIP3     OH2      OT      -0.834000       15.9994           0
     15963 TIP3     2548     TIP3     H1       HT       0.417000       1.00800           0
     15964 TIP3     2548     TIP3     H2       HT       0.417000       1.00800           0
     15965 TIP3     2549     TIP3     OH2      OT      -0.834000       15.9994           0
     15966 TIP3     2549     TIP3     H1       HT       0.417000       1.00800           0
     15967 TIP3     2549     TIP3     H2       HT       0.417000       1.00800           0
     15968 TIP3     2550     TIP3     OH2      OT      -0.834000       15.9994           0
     15969 TIP3     2550     TIP3     H1       HT       0.417000       1.00800           0
     15970 TIP3     2550     TIP3     H2       HT       0.417000       1.00800           0
     15971 TIP3     2551     TIP3     OH2      OT      -0.834000       15.9994           0
     15972 TIP3     2551     TIP3     H1       HT       0.417000       1.00800           0
     15973 TIP3     2551     TIP3     H2       HT       0.417000       1.00800           0
     15974 TIP3     2552     TIP3     OH2      OT      -0.834000       15.9994           0
     15975 TIP3     2552     TIP3     H1       HT       0.417000       1.00800           0
     15976 TIP3     2552     TIP3     H2       HT       0.417000       1.00800           0
     15977 TIP3     2553     TIP3     OH2      OT      -0.834000       15.9994           0
     15978 TIP3     2553     TIP3     H1       HT       0.417000       1.00800           0
     15979 TIP3     2553     TIP3     H2       HT       0.417000       1.00800           0
     15980 TIP3     2554     TIP3     OH2      OT      -0.834000       15.9994           0
     15981 TIP3     2554     TIP3     H1       HT       0.417000       1.00800           0
     15982 TIP3     2554     TIP3     H2       HT       0.417000       1.00800           0
     15983 TIP3     2555     TIP3     OH2      OT      -0.834000       15.9994           0
     15984 TIP3     2555     TIP3     H1       HT       0.417000       1.00800           0
     15985 TIP3     2555     TIP3     H2       HT       0.417000       1.00800           0
     15986 TIP3     2556     TIP3     OH2      OT      -0.834000       15.9994           0
     15987 TIP3     2556     TIP3     H1       HT       0.417000       1.00800           0
     15988 TIP3     2556     TIP3     H2       HT       0.417000       1.00800           0
     15989 TIP3     2557     TIP3     OH2      OT      -0.834000       15.9994           0
     15990 TIP3     2557     TIP3     H1       HT       0.417000       1.00800           0
     15991 TIP3     2557     TIP3     H2       HT       0.417000       1.00800           0
     15992 TIP3     2558     TIP3     OH2      OT      -0.834000       15.9994           0
     15993 TIP3     2558     TIP3     H1       HT       0.417000       1.00800           0
     15994 TIP3     2558     TIP3     H2       HT       0.417000       1.00800           0
     15995 TIP3     2559     TIP3     OH2      OT      -0.834000       15.9994           0
     15996 TIP3     2559     TIP3     H1       HT       0.417000       1.00800           0
     15997 TIP3     2559     TIP3     H2       HT       0.417000       1.00800           0
     15998 TIP3     2560     TIP3     OH2      OT      -0.834000       15.9994           0
     15999 TIP3     2560     TIP3     H1       HT       0.417000       1.00800           0
     16000 TIP3     2560     TIP3     H2       HT       0.417000       1.00800           0
     16001 TIP3     2561     TIP3     OH2      OT      -0.834000       15.9994           0
     16002 TIP3     2561     TIP3     H1       HT       0.417000       1.00800           0
     16003 TIP3     2561     TIP3     H2       HT       0.417000       1.00800           0
     16004 TIP3     2562     TIP3     OH2      OT      -0.834000       15.9994           0
     16005 TIP3     2562     TIP3     H1       HT       0.417000       1.00800           0
     16006 TIP3     2562     TIP3     H2       HT       0.417000       1.00800           0
     16007 TIP3     2563     TIP3     OH2      OT      -0.834000       15.9994           0
     16008 TIP3     2563     TIP3     H1       HT       0.417000       1.00800           0
     16009 TIP3     2563     TIP3     H2       HT       0.417000       1.00800           0
     16010 TIP3     2564     TIP3     OH2      OT      -0.834000       15.9994           0
     16011 TIP3     2564     TIP3     H1       HT       0.417000       1.00800           0
     16012 TIP3     2564     TIP3     H2       HT       0.417000       1.00800           0
     16013 TIP3     2565     TIP3     OH2      OT      -0.834000       15.9994           0
     16014 TIP3     2565     TIP3     H1       HT       0.417000       1.00800           0
     16015 TIP3     2565     TIP3     H2       HT       0.417000       1.00800           0
     16016 TIP3     2566     TIP3     OH2      OT      -0.834000       15.9994           0
     16017 TIP3     2566     TIP3     H1       HT       0.417000       1.00800           0
     16018 TIP3     2566     TIP3     H2       HT       0.417000       1.00800           0
     16019 TIP3     2567     TIP3     OH2      OT      -0.834000       15.9994           0
     16020 TIP3     2567     TIP3     H1       HT       0.417000       1.00800           0
     16021 TIP3     2567     TIP3     H2       HT       0.417000       1.00800           0
     16022 TIP3     2568     TIP3     OH2      OT      -0.834000       15.9994           0
     16023 TIP3     2568     TIP3     H1       HT       0.417000       1.00800           0
     16024 TIP3     2568     TIP3     H2       HT       0.417000       1.00800           0
     16025 TIP3     2569     TIP3     OH2      OT      -0.834000       15.9994           0
     16026 TIP3     2569     TIP3     H1       HT       0.417000       1.00800           0
     16027 TIP3     2569     TIP3     H2       HT       0.417000       1.00800           0
     16028 TIP3     2570     TIP3     OH2      OT      -0.834000       15.9994           0
     16029 TIP3     2570     TIP3     H1       HT       0.417000       1.00800           0
     16030 TIP3     2570     TIP3     H2       HT       0.417000       1.00800           0
     16031 TIP3     2571     TIP3     OH2      OT      -0.834000       15.9994           0
     16032 TIP3     2571     TIP3     H1       HT       0.417000       1.00800           0
     16033 TIP3     2571     TIP3     H2       HT       0.417000       1.00800           0
     16034 TIP3     2572     TIP3     OH2      OT      -0.834000       15.9994           0
     16035 TIP3     2572     TIP3     H1       HT       0.417000       1.00800           0
     16036 TIP3     2572     TIP3     H2       HT       0.417000       1.00800           0
     16037 TIP3     2573     TIP3     OH2      OT      -0.834000       15.9994           0
     16038 TIP3     2573     TIP3     H1       HT       0.417000       1.00800           0
     16039 TIP3     2573     TIP3     H2       HT       0.417000       1.00800           0
     16040 TIP3     2574     TIP3     OH2      OT      -0.834000       15.9994           0
     16041 TIP3     2574     TIP3     H1       HT       0.417000       1.00800           0
     16042 TIP3     2574     TIP3     H2       HT       0.417000       1.00800           0
     16043 TIP3     2575     TIP3     OH2      OT      -0.834000       15.9994           0
     16044 TIP3     2575     TIP3     H1       HT       0.417000       1.00800           0
     16045 TIP3     2575     TIP3     H2       HT       0.417000       1.00800           0
     16046 TIP3     2576     TIP3     OH2      OT      -0.834000       15.9994           0
     16047 TIP3     2576     TIP3     H1       HT       0.417000       1.00800           0
     16048 TIP3     2576     TIP3     H2       HT       0.417000       1.00800           0
     16049 TIP3     2577     TIP3     OH2      OT      -0.834000       15.9994           0
     16050 TIP3     2577     TIP3     H1       HT       0.417000       1.00800           0
     16051 TIP3     2577     TIP3     H2       HT       0.417000       1.00800           0
     16052 TIP3     2578     TIP3     OH2      OT      -0.834000       15.9994           0
     16053 TIP3     2578     TIP3     H1       HT       0.417000       1.00800           0
     16054 TIP3     2578     TIP3     H2       HT       0.417000       1.00800           0
     16055 TIP3     2579     TIP3     OH2      OT      -0.834000       15.9994           0
     16056 TIP3     2579     TIP3     H1       HT       0.417000       1.00800           0
     16057 TIP3     2579     TIP3     H2       HT       0.417000       1.00800           0
     16058 TIP3     2580     TIP3     OH2      OT      -0.834000       15.9994           0
     16059 TIP3     2580     TIP3     H1       HT       0.417000       1.00800           0
     16060 TIP3     2580     TIP3     H2       HT       0.417000       1.00800           0
     16061 TIP3     2581     TIP3     OH2      OT      -0.834000       15.9994           0
     16062 TIP3     2581     TIP3     H1       HT       0.417000       1.00800           0
     16063 TIP3     2581     TIP3     H2       HT       0.417000       1.00800           0
     16064 TIP3     2582     TIP3     OH2      OT      -0.834000       15.9994           0
     16065 TIP3     2582     TIP3     H1       HT       0.417000       1.00800           0
     16066 TIP3     2582     TIP3     H2       HT       0.417000       1.00800           0
     16067 TIP3     2583     TIP3     OH2      OT      -0.834000       15.9994           0
     16068 TIP3     2583     TIP3     H1       HT       0.417000       1.00800           0
     16069 TIP3     2583     TIP3     H2       HT       0.417000       1.00800           0
     16070 TIP3     2584     TIP3     OH2      OT      -0.834000       15.9994           0
     16071 TIP3     2584     TIP3     H1       HT       0.417000       1.00800           0
     16072 TIP3     2584     TIP3     H2       HT       0.417000       1.00800           0
     16073 TIP3     2585     TIP3     OH2      OT      -0.834000       15.9994           0
     16074 TIP3     2585     TIP3     H1       HT       0.417000       1.00800           0
     16075 TIP3     2585     TIP3     H2       HT       0.417000       1.00800           0
     16076 TIP3     2586     TIP3     OH2      OT      -0.834000       15.9994           0
     16077 TIP3     2586     TIP3     H1       HT       0.417000       1.00800           0
     16078 TIP3     2586     TIP3     H2       HT       0.417000       1.00800           0
     16079 TIP3     2587     TIP3     OH2      OT      -0.834000       15.9994           0
     16080 TIP3     2587     TIP3     H1       HT       0.417000       1.00800           0
     16081 TIP3     2587     TIP3     H2       HT       0.417000       1.00800           0
     16082 TIP3     2588     TIP3     OH2      OT      -0.834000       15.9994           0
     16083 TIP3     2588     TIP3     H1       HT       0.417000       1.00800           0
     16084 TIP3     2588     TIP3     H2       HT       0.417000       1.00800           0
     16085 TIP3     2589     TIP3     OH2      OT      -0.834000       15.9994           0
     16086 TIP3     2589     TIP3     H1       HT       0.417000       1.00800           0
     16087 TIP3     2589     TIP3     H2       HT       0.417000       1.00800           0
     16088 TIP3     2590     TIP3     OH2      OT      -0.834000       15.9994           0
     16089 TIP3     2590     TIP3     H1       HT       0.417000       1.00800           0
     16090 TIP3     2590     TIP3     H2       HT       0.417000       1.00800           0
     16091 TIP3     2591     TIP3     OH2      OT      -0.834000       15.9994           0
     16092 TIP3     2591     TIP3     H1       HT       0.417000       1.00800           0
     16093 TIP3     2591     TIP3     H2       HT       0.417000       1.00800           0
     16094 TIP3     2592     TIP3     OH2      OT      -0.834000       15.9994           0
     16095 TIP3     2592     TIP3     H1       HT       0.417000       1.00800           0
     16096 TIP3     2592     TIP3     H2       HT       0.417000       1.00800           0
     16097 TIP3     2593     TIP3     OH2      OT      -0.834000       15.9994           0
     16098 TIP3     2593     TIP3     H1       HT       0.417000       1.00800           0
     16099 TIP3     2593     TIP3     H2       HT       0.417000       1.00800           0
     16100 TIP3     2594     TIP3     OH2      OT      -0.834000       15.9994           0
     16101 TIP3     2594     TIP3     H1       HT       0.417000       1.00800           0
     16102 TIP3     2594     TIP3     H2       HT       0.417000       1.00800           0
     16103 TIP3     2595     TIP3     OH2      OT      -0.834000       15.9994           0
     16104 TIP3     2595     TIP3     H1       HT       0.417000       1.00800           0
     16105 TIP3     2595     TIP3     H2       HT       0.417000       1.00800           0
     16106 TIP3     2596     TIP3     OH2      OT      -0.834000       15.9994           0
     16107 TIP3     2596     TIP3     H1       HT       0.417000       1.00800           0
     16108 TIP3     2596     TIP3     H2       HT       0.417000       1.00800           0
     16109 TIP3     2597     TIP3     OH2      OT      -0.834000       15.9994           0
     16110 TIP3     2597     TIP3     H1       HT       0.417000       1.00800           0
     16111 TIP3     2597     TIP3     H2       HT       0.417000       1.00800           0
     16112 TIP3     2598     TIP3     OH2      OT      -0.834000       15.9994           0
     16113 TIP3     2598     TIP3     H1       HT       0.417000       1.00800           0
     16114 TIP3     2598     TIP3     H2       HT       0.417000       1.00800           0
     16115 TIP3     2599     TIP3     OH2      OT      -0.834000       15.9994           0
     16116 TIP3     2599     TIP3     H1       HT       0.417000       1.00800           0
     16117 TIP3     2599     TIP3     H2       HT       0.417000       1.00800           0
     16118 TIP3     2600     TIP3     OH2      OT      -0.834000       15.9994           0
     16119 TIP3     2600     TIP3     H1       HT       0.417000       1.00800           0
     16120 TIP3     2600     TIP3     H2       HT       0.417000       1.00800           0
     16121 TIP3     2601     TIP3     OH2      OT      -0.834000       15.9994           0
     16122 TIP3     2601     TIP3     H1       HT       0.417000       1.00800           0
     16123 TIP3     2601     TIP3     H2       HT       0.417000       1.00800           0
     16124 TIP3     2602     TIP3     OH2      OT      -0.834000       15.9994           0
     16125 TIP3     2602     TIP3     H1       HT       0.417000       1.00800           0
     16126 TIP3     2602     TIP3     H2       HT       0.417000       1.00800           0
     16127 TIP3     2603     TIP3     OH2      OT      -0.834000       15.9994           0
     16128 TIP3     2603     TIP3     H1       HT       0.417000       1.00800           0
     16129 TIP3     2603     TIP3     H2       HT       0.417000       1.00800           0
     16130 TIP3     2604     TIP3     OH2      OT      -0.834000       15.9994           0
     16131 TIP3     2604     TIP3     H1       HT       0.417000       1.00800           0
     16132 TIP3     2604     TIP3     H2       HT       0.417000       1.00800           0
     16133 TIP3     2605     TIP3     OH2      OT      -0.834000       15.9994           0
     16134 TIP3     2605     TIP3     H1       HT       0.417000       1.00800           0
     16135 TIP3     2605     TIP3     H2       HT       0.417000       1.00800           0
     16136 TIP3     2606     TIP3     OH2      OT      -0.834000       15.9994           0
     16137 TIP3     2606     TIP3     H1       HT       0.417000       1.00800           0
     16138 TIP3     2606     TIP3     H2       HT       0.417000       1.00800           0
     16139 TIP3     2607     TIP3     OH2      OT      -0.834000       15.9994           0
     16140 TIP3     2607     TIP3     H1       HT       0.417000       1.00800           0
     16141 TIP3     2607     TIP3     H2       HT       0.417000       1.00800           0
     16142 TIP3     2608     TIP3     OH2      OT      -0.834000       15.9994           0
     16143 TIP3     2608     TIP3     H1       HT       0.417000       1.00800           0
     16144 TIP3     2608     TIP3     H2       HT       0.417000       1.00800           0
     16145 TIP3     2609     TIP3     OH2      OT      -0.834000       15.9994           0
     16146 TIP3     2609     TIP3     H1       HT       0.417000       1.00800           0
     16147 TIP3     2609     TIP3     H2       HT       0.417000       1.00800           0
     16148 TIP3     2610     TIP3     OH2      OT      -0.834000       15.9994           0
     16149 TIP3     2610     TIP3     H1       HT       0.417000       1.00800           0
     16150 TIP3     2610     TIP3     H2       HT       0.417000       1.00800           0
     16151 TIP3     2611     TIP3     OH2      OT      -0.834000       15.9994           0
     16152 TIP3     2611     TIP3     H1       HT       0.417000       1.00800           0
     16153 TIP3     2611     TIP3     H2       HT       0.417000       1.00800           0
     16154 TIP3     2612     TIP3     OH2      OT      -0.834000       15.9994           0
     16155 TIP3     2612     TIP3     H1       HT       0.417000       1.00800           0
     16156 TIP3     2612     TIP3     H2       HT       0.417000       1.00800           0
     16157 TIP3     2613     TIP3     OH2      OT      -0.834000       15.9994           0
     16158 TIP3     2613     TIP3     H1       HT       0.417000       1.00800           0
     16159 TIP3     2613     TIP3     H2       HT       0.417000       1.00800           0
     16160 TIP3     2614     TIP3     OH2      OT      -0.834000       15.9994           0
     16161 TIP3     2614     TIP3     H1       HT       0.417000       1.00800           0
     16162 TIP3     2614     TIP3     H2       HT       0.417000       1.00800           0
     16163 TIP3     2615     TIP3     OH2      OT      -0.834000       15.9994           0
     16164 TIP3     2615     TIP3     H1       HT       0.417000       1.00800           0
     16165 TIP3     2615     TIP3     H2       HT       0.417000       1.00800           0
     16166 TIP3     2616     TIP3     OH2      OT      -0.834000       15.9994           0
     16167 TIP3     2616     TIP3     H1       HT       0.417000       1.00800           0
     16168 TIP3     2616     TIP3     H2       HT       0.417000       1.00800           0
     16169 TIP3     2617     TIP3     OH2      OT      -0.834000       15.9994           0
     16170 TIP3     2617     TIP3     H1       HT       0.417000       1.00800           0
     16171 TIP3     2617     TIP3     H2       HT       0.417000       1.00800           0
     16172 TIP3     2618     TIP3     OH2      OT      -0.834000       15.9994           0
     16173 TIP3     2618     TIP3     H1       HT       0.417000       1.00800           0
     16174 TIP3     2618     TIP3     H2       HT       0.417000       1.00800           0
     16175 TIP3     2619     TIP3     OH2      OT      -0.834000       15.9994           0
     16176 TIP3     2619     TIP3     H1       HT       0.417000       1.00800           0
     16177 TIP3     2619     TIP3     H2       HT       0.417000       1.00800           0
     16178 TIP3     2620     TIP3     OH2      OT      -0.834000       15.9994           0
     16179 TIP3     2620     TIP3     H1       HT       0.417000       1.00800           0
     16180 TIP3     2620     TIP3     H2       HT       0.417000       1.00800           0
     16181 TIP3     2621     TIP3     OH2      OT      -0.834000       15.9994           0
     16182 TIP3     2621     TIP3     H1       HT       0.417000       1.00800           0
     16183 TIP3     2621     TIP3     H2       HT       0.417000       1.00800           0
     16184 TIP3     2622     TIP3     OH2      OT      -0.834000       15.9994           0
     16185 TIP3     2622     TIP3     H1       HT       0.417000       1.00800           0
     16186 TIP3     2622     TIP3     H2       HT       0.417000       1.00800           0
     16187 TIP3     2623     TIP3     OH2      OT      -0.834000       15.9994           0
     16188 TIP3     2623     TIP3     H1       HT       0.417000       1.00800           0
     16189 TIP3     2623     TIP3     H2       HT       0.417000       1.00800           0
     16190 TIP3     2624     TIP3     OH2      OT      -0.834000       15.9994           0
     16191 TIP3     2624     TIP3     H1       HT       0.417000       1.00800           0
     16192 TIP3     2624     TIP3     H2       HT       0.417000       1.00800           0
     16193 TIP3     2625     TIP3     OH2      OT      -0.834000       15.9994           0
     16194 TIP3     2625     TIP3     H1       HT       0.417000       1.00800           0
     16195 TIP3     2625     TIP3     H2       HT       0.417000       1.00800           0
     16196 TIP3     2626     TIP3     OH2      OT      -0.834000       15.9994           0
     16197 TIP3     2626     TIP3     H1       HT       0.417000       1.00800           0
     16198 TIP3     2626     TIP3     H2       HT       0.417000       1.00800           0
     16199 TIP3     2627     TIP3     OH2      OT      -0.834000       15.9994           0
     16200 TIP3     2627     TIP3     H1       HT       0.417000       1.00800           0
     16201 TIP3     2627     TIP3     H2       HT       0.417000       1.00800           0
     16202 TIP3     2628     TIP3     OH2      OT      -0.834000       15.9994           0
     16203 TIP3     2628     TIP3     H1       HT       0.417000       1.00800           0
     16204 TIP3     2628     TIP3     H2       HT       0.417000       1.00800           0
     16205 TIP3     2629     TIP3     OH2      OT      -0.834000       15.9994           0
     16206 TIP3     2629     TIP3     H1       HT       0.417000       1.00800           0
     16207 TIP3     2629     TIP3     H2       HT       0.417000       1.00800           0
     16208 TIP3     2630     TIP3     OH2      OT      -0.834000       15.9994           0
     16209 TIP3     2630     TIP3     H1       HT       0.417000       1.00800           0
     16210 TIP3     2630     TIP3     H2       HT       0.417000       1.00800           0
     16211 TIP3     2631     TIP3     OH2      OT      -0.834000       15.9994           0
     16212 TIP3     2631     TIP3     H1       HT       0.417000       1.00800           0
     16213 TIP3     2631     TIP3     H2       HT       0.417000       1.00800           0
     16214 TIP3     2632     TIP3     OH2      OT      -0.834000       15.9994           0
     16215 TIP3     2632     TIP3     H1       HT       0.417000       1.00800           0
     16216 TIP3     2632     TIP3     H2       HT       0.417000       1.00800           0
     16217 TIP3     2633     TIP3     OH2      OT      -0.834000       15.9994           0
     16218 TIP3     2633     TIP3     H1       HT       0.417000       1.00800           0
     16219 TIP3     2633     TIP3     H2       HT       0.417000       1.00800           0
     16220 TIP3     2634     TIP3     OH2      OT      -0.834000       15.9994           0
     16221 TIP3     2634     TIP3     H1       HT       0.417000       1.00800           0
     16222 TIP3     2634     TIP3     H2       HT       0.417000       1.00800           0
     16223 TIP3     2635     TIP3     OH2      OT      -0.834000       15.9994           0
     16224 TIP3     2635     TIP3     H1       HT       0.417000       1.00800           0
     16225 TIP3     2635     TIP3     H2       HT       0.417000       1.00800           0
     16226 TIP3     2636     TIP3     OH2      OT      -0.834000       15.9994           0
     16227 TIP3     2636     TIP3     H1       HT       0.417000       1.00800           0
     16228 TIP3     2636     TIP3     H2       HT       0.417000       1.00800           0
     16229 TIP3     2637     TIP3     OH2      OT      -0.834000       15.9994           0
     16230 TIP3     2637     TIP3     H1       HT       0.417000       1.00800           0
     16231 TIP3     2637     TIP3     H2       HT       0.417000       1.00800           0
     16232 TIP3     2638     TIP3     OH2      OT      -0.834000       15.9994           0
     16233 TIP3     2638     TIP3     H1       HT       0.417000       1.00800           0
     16234 TIP3     2638     TIP3     H2       HT       0.417000       1.00800           0
     16235 TIP3     2639     TIP3     OH2      OT      -0.834000       15.9994           0
     16236 TIP3     2639     TIP3     H1       HT       0.417000       1.00800           0
     16237 TIP3     2639     TIP3     H2       HT       0.417000       1.00800           0
     16238 TIP3     2640     TIP3     OH2      OT      -0.834000       15.9994           0
     16239 TIP3     2640     TIP3     H1       HT       0.417000       1.00800           0
     16240 TIP3     2640     TIP3     H2       HT       0.417000       1.00800           0
     16241 TIP3     2641     TIP3     OH2      OT      -0.834000       15.9994           0
     16242 TIP3     2641     TIP3     H1       HT       0.417000       1.00800           0
     16243 TIP3     2641     TIP3     H2       HT       0.417000       1.00800           0
     16244 TIP3     2642     TIP3     OH2      OT      -0.834000       15.9994           0
     16245 TIP3     2642     TIP3     H1       HT       0.417000       1.00800           0
     16246 TIP3     2642     TIP3     H2       HT       0.417000       1.00800           0
     16247 TIP3     2643     TIP3     OH2      OT      -0.834000       15.9994           0
     16248 TIP3     2643     TIP3     H1       HT       0.417000       1.00800           0
     16249 TIP3     2643     TIP3     H2       HT       0.417000       1.00800           0
     16250 TIP3     2644     TIP3     OH2      OT      -0.834000       15.9994           0
     16251 TIP3     2644     TIP3     H1       HT       0.417000       1.00800           0
     16252 TIP3     2644     TIP3     H2       HT       0.417000       1.00800           0
     16253 TIP3     2645     TIP3     OH2      OT      -0.834000       15.9994           0
     16254 TIP3     2645     TIP3     H1       HT       0.417000       1.00800           0
     16255 TIP3     2645     TIP3     H2       HT       0.417000       1.00800           0
     16256 TIP3     2646     TIP3     OH2      OT      -0.834000       15.9994           0
     16257 TIP3     2646     TIP3     H1       HT       0.417000       1.00800           0
     16258 TIP3     2646     TIP3     H2       HT       0.417000       1.00800           0
     16259 TIP3     2647     TIP3     OH2      OT      -0.834000       15.9994           0
     16260 TIP3     2647     TIP3     H1       HT       0.417000       1.00800           0
     16261 TIP3     2647     TIP3     H2       HT       0.417000       1.00800           0
     16262 TIP3     2648     TIP3     OH2      OT      -0.834000       15.9994           0
     16263 TIP3     2648     TIP3     H1       HT       0.417000       1.00800           0
     16264 TIP3     2648     TIP3     H2       HT       0.417000       1.00800           0
     16265 TIP3     2649     TIP3     OH2      OT      -0.834000       15.9994           0
     16266 TIP3     2649     TIP3     H1       HT       0.417000       1.00800           0
     16267 TIP3     2649     TIP3     H2       HT       0.417000       1.00800           0
     16268 TIP3     2650     TIP3     OH2      OT      -0.834000       15.9994           0
     16269 TIP3     2650     TIP3     H1       HT       0.417000       1.00800           0
     16270 TIP3     2650     TIP3     H2       HT       0.417000       1.00800           0
     16271 TIP3     2651     TIP3     OH2      OT      -0.834000       15.9994           0
     16272 TIP3     2651     TIP3     H1       HT       0.417000       1.00800           0
     16273 TIP3     2651     TIP3     H2       HT       0.417000       1.00800           0
     16274 TIP3     2652     TIP3     OH2      OT      -0.834000       15.9994           0
     16275 TIP3     2652     TIP3     H1       HT       0.417000       1.00800           0
     16276 TIP3     2652     TIP3     H2       HT       0.417000       1.00800           0
     16277 TIP3     2653     TIP3     OH2      OT      -0.834000       15.9994           0
     16278 TIP3     2653     TIP3     H1       HT       0.417000       1.00800           0
     16279 TIP3     2653     TIP3     H2       HT       0.417000       1.00800           0
     16280 TIP3     2654     TIP3     OH2      OT      -0.834000       15.9994           0
     16281 TIP3     2654     TIP3     H1       HT       0.417000       1.00800           0
     16282 TIP3     2654     TIP3     H2       HT       0.417000       1.00800           0
     16283 TIP3     2655     TIP3     OH2      OT      -0.834000       15.9994           0
     16284 TIP3     2655     TIP3     H1       HT       0.417000       1.00800           0
     16285 TIP3     2655     TIP3     H2       HT       0.417000       1.00800           0
     16286 TIP3     2656     TIP3     OH2      OT      -0.834000       15.9994           0
     16287 TIP3     2656     TIP3     H1       HT       0.417000       1.00800           0
     16288 TIP3     2656     TIP3     H2       HT       0.417000       1.00800           0
     16289 TIP3     2657     TIP3     OH2      OT      -0.834000       15.9994           0
     16290 TIP3     2657     TIP3     H1       HT       0.417000       1.00800           0
     16291 TIP3     2657     TIP3     H2       HT       0.417000       1.00800           0
     16292 TIP3     2658     TIP3     OH2      OT      -0.834000       15.9994           0
     16293 TIP3     2658     TIP3     H1       HT       0.417000       1.00800           0
     16294 TIP3     2658     TIP3     H2       HT       0.417000       1.00800           0
     16295 TIP3     2659     TIP3     OH2      OT      -0.834000       15.9994           0
     16296 TIP3     2659     TIP3     H1       HT       0.417000       1.00800           0
     16297 TIP3     2659     TIP3     H2       HT       0.417000       1.00800           0
     16298 TIP3     2660     TIP3     OH2      OT      -0.834000       15.9994           0
     16299 TIP3     2660     TIP3     H1       HT       0.417000       1.00800           0
     16300 TIP3     2660     TIP3     H2       HT       0.417000       1.00800           0
     16301 TIP3     2661     TIP3     OH2      OT      -0.834000       15.9994           0
     16302 TIP3     2661     TIP3     H1       HT       0.417000       1.00800           0
     16303 TIP3     2661     TIP3     H2       HT       0.417000       1.00800           0
     16304 TIP3     2662     TIP3     OH2      OT      -0.834000       15.9994           0
     16305 TIP3     2662     TIP3     H1       HT       0.417000       1.00800           0
     16306 TIP3     2662     TIP3     H2       HT       0.417000       1.00800           0
     16307 TIP3     2663     TIP3     OH2      OT      -0.834000       15.9994           0
     16308 TIP3     2663     TIP3     H1       HT       0.417000       1.00800           0
     16309 TIP3     2663     TIP3     H2       HT       0.417000       1.00800           0
     16310 TIP3     2664     TIP3     OH2      OT      -0.834000       15.9994           0
     16311 TIP3     2664     TIP3     H1       HT       0.417000       1.00800           0
     16312 TIP3     2664     TIP3     H2       HT       0.417000       1.00800           0
     16313 TIP3     2665     TIP3     OH2      OT      -0.834000       15.9994           0
     16314 TIP3     2665     TIP3     H1       HT       0.417000       1.00800           0
     16315 TIP3     2665     TIP3     H2       HT       0.417000       1.00800           0
     16316 TIP3     2666     TIP3     OH2      OT      -0.834000       15.9994           0
     16317 TIP3     2666     TIP3     H1       HT       0.417000       1.00800           0
     16318 TIP3     2666     TIP3     H2       HT       0.417000       1.00800           0
     16319 TIP3     2667     TIP3     OH2      OT      -0.834000       15.9994           0
     16320 TIP3     2667     TIP3     H1       HT       0.417000       1.00800           0
     16321 TIP3     2667     TIP3     H2       HT       0.417000       1.00800           0
     16322 TIP3     2668     TIP3     OH2      OT      -0.834000       15.9994           0
     16323 TIP3     2668     TIP3     H1       HT       0.417000       1.00800           0
     16324 TIP3     2668     TIP3     H2       HT       0.417000       1.00800           0
     16325 TIP3     2669     TIP3     OH2      OT      -0.834000       15.9994           0
     16326 TIP3     2669     TIP3     H1       HT       0.417000       1.00800           0
     16327 TIP3     2669     TIP3     H2       HT       0.417000       1.00800           0
     16328 TIP3     2670     TIP3     OH2      OT      -0.834000       15.9994           0
     16329 TIP3     2670     TIP3     H1       HT       0.417000       1.00800           0
     16330 TIP3     2670     TIP3     H2       HT       0.417000       1.00800           0
     16331 TIP3     2671     TIP3     OH2      OT      -0.834000       15.9994           0
     16332 TIP3     2671     TIP3     H1       HT       0.417000       1.00800           0
     16333 TIP3     2671     TIP3     H2       HT       0.417000       1.00800           0
     16334 TIP3     2672     TIP3     OH2      OT      -0.834000       15.9994           0
     16335 TIP3     2672     TIP3     H1       HT       0.417000       1.00800           0
     16336 TIP3     2672     TIP3     H2       HT       0.417000       1.00800           0
     16337 TIP3     2673     TIP3     OH2      OT      -0.834000       15.9994           0
     16338 TIP3     2673     TIP3     H1       HT       0.417000       1.00800           0
     16339 TIP3     2673     TIP3     H2       HT       0.417000       1.00800           0
     16340 TIP3     2674     TIP3     OH2      OT      -0.834000       15.9994           0
     16341 TIP3     2674     TIP3     H1       HT       0.417000       1.00800           0
     16342 TIP3     2674     TIP3     H2       HT       0.417000       1.00800           0
     16343 TIP3     2675     TIP3     OH2      OT      -0.834000       15.9994           0
     16344 TIP3     2675     TIP3     H1       HT       0.417000       1.00800           0
     16345 TIP3     2675     TIP3     H2       HT       0.417000       1.00800           0
     16346 TIP3     2676     TIP3     OH2      OT      -0.834000       15.9994           0
     16347 TIP3     2676     TIP3     H1       HT       0.417000       1.00800           0
     16348 TIP3     2676     TIP3     H2       HT       0.417000       1.00800           0
     16349 TIP3     2677     TIP3     OH2      OT      -0.834000       15.9994           0
     16350 TIP3     2677     TIP3     H1       HT       0.417000       1.00800           0
     16351 TIP3     2677     TIP3     H2       HT       0.417000       1.00800           0
     16352 TIP3     2678     TIP3     OH2      OT      -0.834000       15.9994           0
     16353 TIP3     2678     TIP3     H1       HT       0.417000       1.00800           0
     16354 TIP3     2678     TIP3     H2       HT       0.417000       1.00800           0
     16355 TIP3     2679     TIP3     OH2      OT      -0.834000       15.9994           0
     16356 TIP3     2679     TIP3     H1       HT       0.417000       1.00800           0
     16357 TIP3     2679     TIP3     H2       HT       0.417000       1.00800           0
     16358 TIP3     2680     TIP3     OH2      OT      -0.834000       15.9994           0
     16359 TIP3     2680     TIP3     H1       HT       0.417000       1.00800           0
     16360 TIP3     2680     TIP3     H2       HT       0.417000       1.00800           0
     16361 TIP3     2681     TIP3     OH2      OT      -0.834000       15.9994           0
     16362 TIP3     2681     TIP3     H1       HT       0.417000       1.00800           0
     16363 TIP3     2681     TIP3     H2       HT       0.417000       1.00800           0
     16364 TIP3     2682     TIP3     OH2      OT      -0.834000       15.9994           0
     16365 TIP3     2682     TIP3     H1       HT       0.417000       1.00800           0
     16366 TIP3     2682     TIP3     H2       HT       0.417000       1.00800           0
     16367 TIP3     2683     TIP3     OH2      OT      -0.834000       15.9994           0
     16368 TIP3     2683     TIP3     H1       HT       0.417000       1.00800           0
     16369 TIP3     2683     TIP3     H2       HT       0.417000       1.00800           0
     16370 TIP3     2684     TIP3     OH2      OT      -0.834000       15.9994           0
     16371 TIP3     2684     TIP3     H1       HT       0.417000       1.00800           0
     16372 TIP3     2684     TIP3     H2       HT       0.417000       1.00800           0
     16373 TIP3     2685     TIP3     OH2      OT      -0.834000       15.9994           0
     16374 TIP3     2685     TIP3     H1       HT       0.417000       1.00800           0
     16375 TIP3     2685     TIP3     H2       HT       0.417000       1.00800           0
     16376 TIP3     2686     TIP3     OH2      OT      -0.834000       15.9994           0
     16377 TIP3     2686     TIP3     H1       HT       0.417000       1.00800           0
     16378 TIP3     2686     TIP3     H2       HT       0.417000       1.00800           0
     16379 TIP3     2687     TIP3     OH2      OT      -0.834000       15.9994           0
     16380 TIP3     2687     TIP3     H1       HT       0.417000       1.00800           0
     16381 TIP3     2687     TIP3     H2       HT       0.417000       1.00800           0
     16382 TIP3     2688     TIP3     OH2      OT      -0.834000       15.9994           0
     16383 TIP3     2688     TIP3     H1       HT       0.417000       1.00800           0
     16384 TIP3     2688     TIP3     H2       HT       0.417000       1.00800           0
     16385 TIP3     2689     TIP3     OH2      OT      -0.834000       15.9994           0
     16386 TIP3     2689     TIP3     H1       HT       0.417000       1.00800           0
     16387 TIP3     2689     TIP3     H2       HT       0.417000       1.00800           0
     16388 TIP3     2690     TIP3     OH2      OT      -0.834000       15.9994           0
     16389 TIP3     2690     TIP3     H1       HT       0.417000       1.00800           0
     16390 TIP3     2690     TIP3     H2       HT       0.417000       1.00800           0
     16391 TIP3     2691     TIP3     OH2      OT      -0.834000       15.9994           0
     16392 TIP3     2691     TIP3     H1       HT       0.417000       1.00800           0
     16393 TIP3     2691     TIP3     H2       HT       0.417000       1.00800           0
     16394 TIP3     2692     TIP3     OH2      OT      -0.834000       15.9994           0
     16395 TIP3     2692     TIP3     H1       HT       0.417000       1.00800           0
     16396 TIP3     2692     TIP3     H2       HT       0.417000       1.00800           0
     16397 TIP3     2693     TIP3     OH2      OT      -0.834000       15.9994           0
     16398 TIP3     2693     TIP3     H1       HT       0.417000       1.00800           0
     16399 TIP3     2693     TIP3     H2       HT       0.417000       1.00800           0
     16400 TIP3     2694     TIP3     OH2      OT      -0.834000       15.9994           0
     16401 TIP3     2694     TIP3     H1       HT       0.417000       1.00800           0
     16402 TIP3     2694     TIP3     H2       HT       0.417000       1.00800           0
     16403 TIP3     2695     TIP3     OH2      OT      -0.834000       15.9994           0
     16404 TIP3     2695     TIP3     H1       HT       0.417000       1.00800           0
     16405 TIP3     2695     TIP3     H2       HT       0.417000       1.00800           0
     16406 TIP3     2696     TIP3     OH2      OT      -0.834000       15.9994           0
     16407 TIP3     2696     TIP3     H1       HT       0.417000       1.00800           0
     16408 TIP3     2696     TIP3     H2       HT       0.417000       1.00800           0
     16409 TIP3     2697     TIP3     OH2      OT      -0.834000       15.9994           0
     16410 TIP3     2697     TIP3     H1       HT       0.417000       1.00800           0
     16411 TIP3     2697     TIP3     H2       HT       0.417000       1.00800           0
     16412 TIP3     2698     TIP3     OH2      OT      -0.834000       15.9994           0
     16413 TIP3     2698     TIP3     H1       HT       0.417000       1.00800           0
     16414 TIP3     2698     TIP3     H2       HT       0.417000       1.00800           0
     16415 TIP3     2699     TIP3     OH2      OT      -0.834000       15.9994           0
     16416 TIP3     2699     TIP3     H1       HT       0.417000       1.00800           0
     16417 TIP3     2699     TIP3     H2       HT       0.417000       1.00800           0
     16418 TIP3     2700     TIP3     OH2      OT      -0.834000       15.9994           0
     16419 TIP3     2700     TIP3     H1       HT       0.417000       1.00800           0
     16420 TIP3     2700     TIP3     H2       HT       0.417000       1.00800           0
     16421 TIP3     2701     TIP3     OH2      OT      -0.834000       15.9994           0
     16422 TIP3     2701     TIP3     H1       HT       0.417000       1.00800           0
     16423 TIP3     2701     TIP3     H2       HT       0.417000       1.00800           0
     16424 TIP3     2702     TIP3     OH2      OT      -0.834000       15.9994           0
     16425 TIP3     2702     TIP3     H1       HT       0.417000       1.00800           0
     16426 TIP3     2702     TIP3     H2       HT       0.417000       1.00800           0
     16427 TIP3     2703     TIP3     OH2      OT      -0.834000       15.9994           0
     16428 TIP3     2703     TIP3     H1       HT       0.417000       1.00800           0
     16429 TIP3     2703     TIP3     H2       HT       0.417000       1.00800           0
     16430 TIP3     2704     TIP3     OH2      OT      -0.834000       15.9994           0
     16431 TIP3     2704     TIP3     H1       HT       0.417000       1.00800           0
     16432 TIP3     2704     TIP3     H2       HT       0.417000       1.00800           0
     16433 TIP3     2705     TIP3     OH2      OT      -0.834000       15.9994           0
     16434 TIP3     2705     TIP3     H1       HT       0.417000       1.00800           0
     16435 TIP3     2705     TIP3     H2       HT       0.417000       1.00800           0
     16436 TIP3     2706     TIP3     OH2      OT      -0.834000       15.9994           0
     16437 TIP3     2706     TIP3     H1       HT       0.417000       1.00800           0
     16438 TIP3     2706     TIP3     H2       HT       0.417000       1.00800           0
     16439 TIP3     2707     TIP3     OH2      OT      -0.834000       15.9994           0
     16440 TIP3     2707     TIP3     H1       HT       0.417000       1.00800           0
     16441 TIP3     2707     TIP3     H2       HT       0.417000       1.00800           0
     16442 TIP3     2708     TIP3     OH2      OT      -0.834000       15.9994           0
     16443 TIP3     2708     TIP3     H1       HT       0.417000       1.00800           0
     16444 TIP3     2708     TIP3     H2       HT       0.417000       1.00800           0
     16445 TIP3     2709     TIP3     OH2      OT      -0.834000       15.9994           0
     16446 TIP3     2709     TIP3     H1       HT       0.417000       1.00800           0
     16447 TIP3     2709     TIP3     H2       HT       0.417000       1.00800           0
     16448 TIP3     2710     TIP3     OH2      OT      -0.834000       15.9994           0
     16449 TIP3     2710     TIP3     H1       HT       0.417000       1.00800           0
     16450 TIP3     2710     TIP3     H2       HT       0.417000       1.00800           0
     16451 TIP3     2711     TIP3     OH2      OT      -0.834000       15.9994           0
     16452 TIP3     2711     TIP3     H1       HT       0.417000       1.00800           0
     16453 TIP3     2711     TIP3     H2       HT       0.417000       1.00800           0
     16454 TIP3     2712     TIP3     OH2      OT      -0.834000       15.9994           0
     16455 TIP3     2712     TIP3     H1       HT       0.417000       1.00800           0
     16456 TIP3     2712     TIP3     H2       HT       0.417000       1.00800           0
     16457 TIP3     2713     TIP3     OH2      OT      -0.834000       15.9994           0
     16458 TIP3     2713     TIP3     H1       HT       0.417000       1.00800           0
     16459 TIP3     2713     TIP3     H2       HT       0.417000       1.00800           0
     16460 TIP3     2714     TIP3     OH2      OT      -0.834000       15.9994           0
     16461 TIP3     2714     TIP3     H1       HT       0.417000       1.00800           0
     16462 TIP3     2714     TIP3     H2       HT       0.417000       1.00800           0
     16463 TIP3     2715     TIP3     OH2      OT      -0.834000       15.9994           0
     16464 TIP3     2715     TIP3     H1       HT       0.417000       1.00800           0
     16465 TIP3     2715     TIP3     H2       HT       0.417000       1.00800           0
     16466 TIP3     2716     TIP3     OH2      OT      -0.834000       15.9994           0
     16467 TIP3     2716     TIP3     H1       HT       0.417000       1.00800           0
     16468 TIP3     2716     TIP3     H2       HT       0.417000       1.00800           0
     16469 TIP3     2717     TIP3     OH2      OT      -0.834000       15.9994           0
     16470 TIP3     2717     TIP3     H1       HT       0.417000       1.00800           0
     16471 TIP3     2717     TIP3     H2       HT       0.417000       1.00800           0
     16472 TIP3     2718     TIP3     OH2      OT      -0.834000       15.9994           0
     16473 TIP3     2718     TIP3     H1       HT       0.417000       1.00800           0
     16474 TIP3     2718     TIP3     H2       HT       0.417000       1.00800           0
     16475 TIP3     2719     TIP3     OH2      OT      -0.834000       15.9994           0
     16476 TIP3     2719     TIP3     H1       HT       0.417000       1.00800           0
     16477 TIP3     2719     TIP3     H2       HT       0.417000       1.00800           0
     16478 TIP3     2720     TIP3     OH2      OT      -0.834000       15.9994           0
     16479 TIP3     2720     TIP3     H1       HT       0.417000       1.00800           0
     16480 TIP3     2720     TIP3     H2       HT       0.417000       1.00800           0
     16481 TIP3     2721     TIP3     OH2      OT      -0.834000       15.9994           0
     16482 TIP3     2721     TIP3     H1       HT       0.417000       1.00800           0
     16483 TIP3     2721     TIP3     H2       HT       0.417000       1.00800           0
     16484 TIP3     2722     TIP3     OH2      OT      -0.834000       15.9994           0
     16485 TIP3     2722     TIP3     H1       HT       0.417000       1.00800           0
     16486 TIP3     2722     TIP3     H2       HT       0.417000       1.00800           0
     16487 TIP3     2723     TIP3     OH2      OT      -0.834000       15.9994           0
     16488 TIP3     2723     TIP3     H1       HT       0.417000       1.00800           0
     16489 TIP3     2723     TIP3     H2       HT       0.417000       1.00800           0
     16490 TIP3     2724     TIP3     OH2      OT      -0.834000       15.9994           0
     16491 TIP3     2724     TIP3     H1       HT       0.417000       1.00800           0
     16492 TIP3     2724     TIP3     H2       HT       0.417000       1.00800           0
     16493 TIP3     2725     TIP3     OH2      OT      -0.834000       15.9994           0
     16494 TIP3     2725     TIP3     H1       HT       0.417000       1.00800           0
     16495 TIP3     2725     TIP3     H2       HT       0.417000       1.00800           0
     16496 TIP3     2726     TIP3     OH2      OT      -0.834000       15.9994           0
     16497 TIP3     2726     TIP3     H1       HT       0.417000       1.00800           0
     16498 TIP3     2726     TIP3     H2       HT       0.417000       1.00800           0
     16499 TIP3     2727     TIP3     OH2      OT      -0.834000       15.9994           0
     16500 TIP3     2727     TIP3     H1       HT       0.417000       1.00800           0
     16501 TIP3     2727     TIP3     H2       HT       0.417000       1.00800           0
     16502 TIP3     2728     TIP3     OH2      OT      -0.834000       15.9994           0
     16503 TIP3     2728     TIP3     H1       HT       0.417000       1.00800           0
     16504 TIP3     2728     TIP3     H2       HT       0.417000       1.00800           0
     16505 TIP3     2729     TIP3     OH2      OT      -0.834000       15.9994           0
     16506 TIP3     2729     TIP3     H1       HT       0.417000       1.00800           0
     16507 TIP3     2729     TIP3     H2       HT       0.417000       1.00800           0
     16508 TIP3     2730     TIP3     OH2      OT      -0.834000       15.9994           0
     16509 TIP3     2730     TIP3     H1       HT       0.417000       1.00800           0
     16510 TIP3     2730     TIP3     H2       HT       0.417000       1.00800           0
     16511 TIP3     2731     TIP3     OH2      OT      -0.834000       15.9994           0
     16512 TIP3     2731     TIP3     H1       HT       0.417000       1.00800           0
     16513 TIP3     2731     TIP3     H2       HT       0.417000       1.00800           0
     16514 TIP3     2732     TIP3     OH2      OT      -0.834000       15.9994           0
     16515 TIP3     2732     TIP3     H1       HT       0.417000       1.00800           0
     16516 TIP3     2732     TIP3     H2       HT       0.417000       1.00800           0
     16517 TIP3     2733     TIP3     OH2      OT      -0.834000       15.9994           0
     16518 TIP3     2733     TIP3     H1       HT       0.417000       1.00800           0
     16519 TIP3     2733     TIP3     H2       HT       0.417000       1.00800           0
     16520 TIP3     2734     TIP3     OH2      OT      -0.834000       15.9994           0
     16521 TIP3     2734     TIP3     H1       HT       0.417000       1.00800           0
     16522 TIP3     2734     TIP3     H2       HT       0.417000       1.00800           0
     16523 TIP3     2735     TIP3     OH2      OT      -0.834000       15.9994           0
     16524 TIP3     2735     TIP3     H1       HT       0.417000       1.00800           0
     16525 TIP3     2735     TIP3     H2       HT       0.417000       1.00800           0
     16526 TIP3     2736     TIP3     OH2      OT      -0.834000       15.9994           0
     16527 TIP3     2736     TIP3     H1       HT       0.417000       1.00800           0
     16528 TIP3     2736     TIP3     H2       HT       0.417000       1.00800           0
     16529 TIP3     2737     TIP3     OH2      OT      -0.834000       15.9994           0
     16530 TIP3     2737     TIP3     H1       HT       0.417000       1.00800           0
     16531 TIP3     2737     TIP3     H2       HT       0.417000       1.00800           0
     16532 TIP3     2738     TIP3     OH2      OT      -0.834000       15.9994           0
     16533 TIP3     2738     TIP3     H1       HT       0.417000       1.00800           0
     16534 TIP3     2738     TIP3     H2       HT       0.417000       1.00800           0
     16535 TIP3     2739     TIP3     OH2      OT      -0.834000       15.9994           0
     16536 TIP3     2739     TIP3     H1       HT       0.417000       1.00800           0
     16537 TIP3     2739     TIP3     H2       HT       0.417000       1.00800           0
     16538 TIP3     2740     TIP3     OH2      OT      -0.834000       15.9994           0
     16539 TIP3     2740     TIP3     H1       HT       0.417000       1.00800           0
     16540 TIP3     2740     TIP3     H2       HT       0.417000       1.00800           0
     16541 TIP3     2741     TIP3     OH2      OT      -0.834000       15.9994           0
     16542 TIP3     2741     TIP3     H1       HT       0.417000       1.00800           0
     16543 TIP3     2741     TIP3     H2       HT       0.417000       1.00800           0
     16544 TIP3     2742     TIP3     OH2      OT      -0.834000       15.9994           0
     16545 TIP3     2742     TIP3     H1       HT       0.417000       1.00800           0
     16546 TIP3     2742     TIP3     H2       HT       0.417000       1.00800           0
     16547 TIP3     2743     TIP3     OH2      OT      -0.834000       15.9994           0
     16548 TIP3     2743     TIP3     H1       HT       0.417000       1.00800           0
     16549 TIP3     2743     TIP3     H2       HT       0.417000       1.00800           0
     16550 TIP3     2744     TIP3     OH2      OT      -0.834000       15.9994           0
     16551 TIP3     2744     TIP3     H1       HT       0.417000       1.00800           0
     16552 TIP3     2744     TIP3     H2       HT       0.417000       1.00800           0
     16553 TIP3     2745     TIP3     OH2      OT      -0.834000       15.9994           0
     16554 TIP3     2745     TIP3     H1       HT       0.417000       1.00800           0
     16555 TIP3     2745     TIP3     H2       HT       0.417000       1.00800           0
     16556 TIP3     2746     TIP3     OH2      OT      -0.834000       15.9994           0
     16557 TIP3     2746     TIP3     H1       HT       0.417000       1.00800           0
     16558 TIP3     2746     TIP3     H2       HT       0.417000       1.00800           0
     16559 TIP3     2747     TIP3     OH2      OT      -0.834000       15.9994           0
     16560 TIP3     2747     TIP3     H1       HT       0.417000       1.00800           0
     16561 TIP3     2747     TIP3     H2       HT       0.417000       1.00800           0
     16562 TIP3     2748     TIP3     OH2      OT      -0.834000       15.9994           0
     16563 TIP3     2748     TIP3     H1       HT       0.417000       1.00800           0
     16564 TIP3     2748     TIP3     H2       HT       0.417000       1.00800           0
     16565 TIP3     2749     TIP3     OH2      OT      -0.834000       15.9994           0
     16566 TIP3     2749     TIP3     H1       HT       0.417000       1.00800           0
     16567 TIP3     2749     TIP3     H2       HT       0.417000       1.00800           0
     16568 TIP3     2750     TIP3     OH2      OT      -0.834000       15.9994           0
     16569 TIP3     2750     TIP3     H1       HT       0.417000       1.00800           0
     16570 TIP3     2750     TIP3     H2       HT       0.417000       1.00800           0
     16571 TIP3     2751     TIP3     OH2      OT      -0.834000       15.9994           0
     16572 TIP3     2751     TIP3     H1       HT       0.417000       1.00800           0
     16573 TIP3     2751     TIP3     H2       HT       0.417000       1.00800           0
     16574 TIP3     2752     TIP3     OH2      OT      -0.834000       15.9994           0
     16575 TIP3     2752     TIP3     H1       HT       0.417000       1.00800           0
     16576 TIP3     2752     TIP3     H2       HT       0.417000       1.00800           0
     16577 TIP3     2753     TIP3     OH2      OT      -0.834000       15.9994           0
     16578 TIP3     2753     TIP3     H1       HT       0.417000       1.00800           0
     16579 TIP3     2753     TIP3     H2       HT       0.417000       1.00800           0
     16580 TIP3     2754     TIP3     OH2      OT      -0.834000       15.9994           0
     16581 TIP3     2754     TIP3     H1       HT       0.417000       1.00800           0
     16582 TIP3     2754     TIP3     H2       HT       0.417000       1.00800           0
     16583 TIP3     2755     TIP3     OH2      OT      -0.834000       15.9994           0
     16584 TIP3     2755     TIP3     H1       HT       0.417000       1.00800           0
     16585 TIP3     2755     TIP3     H2       HT       0.417000       1.00800           0
     16586 TIP3     2756     TIP3     OH2      OT      -0.834000       15.9994           0
     16587 TIP3     2756     TIP3     H1       HT       0.417000       1.00800           0
     16588 TIP3     2756     TIP3     H2       HT       0.417000       1.00800           0
     16589 TIP3     2757     TIP3     OH2      OT      -0.834000       15.9994           0
     16590 TIP3     2757     TIP3     H1       HT       0.417000       1.00800           0
     16591 TIP3     2757     TIP3     H2       HT       0.417000       1.00800           0
     16592 TIP3     2758     TIP3     OH2      OT      -0.834000       15.9994           0
     16593 TIP3     2758     TIP3     H1       HT       0.417000       1.00800           0
     16594 TIP3     2758     TIP3     H2       HT       0.417000       1.00800           0
     16595 TIP3     2759     TIP3     OH2      OT      -0.834000       15.9994           0
     16596 TIP3     2759     TIP3     H1       HT       0.417000       1.00800           0
     16597 TIP3     2759     TIP3     H2       HT       0.417000       1.00800           0
     16598 TIP3     2760     TIP3     OH2      OT      -0.834000       15.9994           0
     16599 TIP3     2760     TIP3     H1       HT       0.417000       1.00800           0
     16600 TIP3     2760     TIP3     H2       HT       0.417000       1.00800           0
     16601 TIP3     2761     TIP3     OH2      OT      -0.834000       15.9994           0
     16602 TIP3     2761     TIP3     H1       HT       0.417000       1.00800           0
     16603 TIP3     2761     TIP3     H2       HT       0.417000       1.00800           0
     16604 TIP3     2762     TIP3     OH2      OT      -0.834000       15.9994           0
     16605 TIP3     2762     TIP3     H1       HT       0.417000       1.00800           0
     16606 TIP3     2762     TIP3     H2       HT       0.417000       1.00800           0
     16607 TIP3     2763     TIP3     OH2      OT      -0.834000       15.9994           0
     16608 TIP3     2763     TIP3     H1       HT       0.417000       1.00800           0
     16609 TIP3     2763     TIP3     H2       HT       0.417000       1.00800           0
     16610 TIP3     2764     TIP3     OH2      OT      -0.834000       15.9994           0
     16611 TIP3     2764     TIP3     H1       HT       0.417000       1.00800           0
     16612 TIP3     2764     TIP3     H2       HT       0.417000       1.00800           0
     16613 TIP3     2765     TIP3     OH2      OT      -0.834000       15.9994           0
     16614 TIP3     2765     TIP3     H1       HT       0.417000       1.00800           0
     16615 TIP3     2765     TIP3     H2       HT       0.417000       1.00800           0
     16616 TIP3     2766     TIP3     OH2      OT      -0.834000       15.9994           0
     16617 TIP3     2766     TIP3     H1       HT       0.417000       1.00800           0
     16618 TIP3     2766     TIP3     H2       HT       0.417000       1.00800           0
     16619 TIP3     2767     TIP3     OH2      OT      -0.834000       15.9994           0
     16620 TIP3     2767     TIP3     H1       HT       0.417000       1.00800           0
     16621 TIP3     2767     TIP3     H2       HT       0.417000       1.00800           0
     16622 TIP3     2768     TIP3     OH2      OT      -0.834000       15.9994           0
     16623 TIP3     2768     TIP3     H1       HT       0.417000       1.00800           0
     16624 TIP3     2768     TIP3     H2       HT       0.417000       1.00800           0
     16625 TIP3     2769     TIP3     OH2      OT      -0.834000       15.9994           0
     16626 TIP3     2769     TIP3     H1       HT       0.417000       1.00800           0
     16627 TIP3     2769     TIP3     H2       HT       0.417000       1.00800           0
     16628 TIP3     2770     TIP3     OH2      OT      -0.834000       15.9994           0
     16629 TIP3     2770     TIP3     H1       HT       0.417000       1.00800           0
     16630 TIP3     2770     TIP3     H2       HT       0.417000       1.00800           0
     16631 TIP3     2771     TIP3     OH2      OT      -0.834000       15.9994           0
     16632 TIP3     2771     TIP3     H1       HT       0.417000       1.00800           0
     16633 TIP3     2771     TIP3     H2       HT       0.417000       1.00800           0
     16634 TIP3     2772     TIP3     OH2      OT      -0.834000       15.9994           0
     16635 TIP3     2772     TIP3     H1       HT       0.417000       1.00800           0
     16636 TIP3     2772     TIP3     H2       HT       0.417000       1.00800           0
     16637 TIP3     2773     TIP3     OH2      OT      -0.834000       15.9994           0
     16638 TIP3     2773     TIP3     H1       HT       0.417000       1.00800           0
     16639 TIP3     2773     TIP3     H2       HT       0.417000       1.00800           0
     16640 TIP3     2774     TIP3     OH2      OT      -0.834000       15.9994           0
     16641 TIP3     2774     TIP3     H1       HT       0.417000       1.00800           0
     16642 TIP3     2774     TIP3     H2       HT       0.417000       1.00800           0
     16643 TIP3     2775     TIP3     OH2      OT      -0.834000       15.9994           0
     16644 TIP3     2775     TIP3     H1       HT       0.417000       1.00800           0
     16645 TIP3     2775     TIP3     H2       HT       0.417000       1.00800           0
     16646 TIP3     2776     TIP3     OH2      OT      -0.834000       15.9994           0
     16647 TIP3     2776     TIP3     H1       HT       0.417000       1.00800           0
     16648 TIP3     2776     TIP3     H2       HT       0.417000       1.00800           0
     16649 TIP3     2777     TIP3     OH2      OT      -0.834000       15.9994           0
     16650 TIP3     2777     TIP3     H1       HT       0.417000       1.00800           0
     16651 TIP3     2777     TIP3     H2       HT       0.417000       1.00800           0
     16652 TIP3     2778     TIP3     OH2      OT      -0.834000       15.9994           0
     16653 TIP3     2778     TIP3     H1       HT       0.417000       1.00800           0
     16654 TIP3     2778     TIP3     H2       HT       0.417000       1.00800           0
     16655 TIP3     2779     TIP3     OH2      OT      -0.834000       15.9994           0
     16656 TIP3     2779     TIP3     H1       HT       0.417000       1.00800           0
     16657 TIP3     2779     TIP3     H2       HT       0.417000       1.00800           0
     16658 TIP3     2780     TIP3     OH2      OT      -0.834000       15.9994           0
     16659 TIP3     2780     TIP3     H1       HT       0.417000       1.00800           0
     16660 TIP3     2780     TIP3     H2       HT       0.417000       1.00800           0
     16661 TIP3     2781     TIP3     OH2      OT      -0.834000       15.9994           0
     16662 TIP3     2781     TIP3     H1       HT       0.417000       1.00800           0
     16663 TIP3     2781     TIP3     H2       HT       0.417000       1.00800           0
     16664 TIP3     2782     TIP3     OH2      OT      -0.834000       15.9994           0
     16665 TIP3     2782     TIP3     H1       HT       0.417000       1.00800           0
     16666 TIP3     2782     TIP3     H2       HT       0.417000       1.00800           0
     16667 TIP3     2783     TIP3     OH2      OT      -0.834000       15.9994           0
     16668 TIP3     2783     TIP3     H1       HT       0.417000       1.00800           0
     16669 TIP3     2783     TIP3     H2       HT       0.417000       1.00800           0
     16670 TIP3     2784     TIP3     OH2      OT      -0.834000       15.9994           0
     16671 TIP3     2784     TIP3     H1       HT       0.417000       1.00800           0
     16672 TIP3     2784     TIP3     H2       HT       0.417000       1.00800           0
     16673 TIP3     2785     TIP3     OH2      OT      -0.834000       15.9994           0
     16674 TIP3     2785     TIP3     H1       HT       0.417000       1.00800           0
     16675 TIP3     2785     TIP3     H2       HT       0.417000       1.00800           0
     16676 TIP3     2786     TIP3     OH2      OT      -0.834000       15.9994           0
     16677 TIP3     2786     TIP3     H1       HT       0.417000       1.00800           0
     16678 TIP3     2786     TIP3     H2       HT       0.417000       1.00800           0
     16679 TIP3     2787     TIP3     OH2      OT      -0.834000       15.9994           0
     16680 TIP3     2787     TIP3     H1       HT       0.417000       1.00800           0
     16681 TIP3     2787     TIP3     H2       HT       0.417000       1.00800           0
     16682 TIP3     2788     TIP3     OH2      OT      -0.834000       15.9994           0
     16683 TIP3     2788     TIP3     H1       HT       0.417000       1.00800           0
     16684 TIP3     2788     TIP3     H2       HT       0.417000       1.00800           0
     16685 TIP3     2789     TIP3     OH2      OT      -0.834000       15.9994           0
     16686 TIP3     2789     TIP3     H1       HT       0.417000       1.00800           0
     16687 TIP3     2789     TIP3     H2       HT       0.417000       1.00800           0
     16688 TIP3     2790     TIP3     OH2      OT      -0.834000       15.9994           0
     16689 TIP3     2790     TIP3     H1       HT       0.417000       1.00800           0
     16690 TIP3     2790     TIP3     H2       HT       0.417000       1.00800           0
     16691 TIP3     2791     TIP3     OH2      OT      -0.834000       15.9994           0
     16692 TIP3     2791     TIP3     H1       HT       0.417000       1.00800           0
     16693 TIP3     2791     TIP3     H2       HT       0.417000       1.00800           0
     16694 TIP3     2792     TIP3     OH2      OT      -0.834000       15.9994           0
     16695 TIP3     2792     TIP3     H1       HT       0.417000       1.00800           0
     16696 TIP3     2792     TIP3     H2       HT       0.417000       1.00800           0
     16697 TIP3     2793     TIP3     OH2      OT      -0.834000       15.9994           0
     16698 TIP3     2793     TIP3     H1       HT       0.417000       1.00800           0
     16699 TIP3     2793     TIP3     H2       HT       0.417000       1.00800           0
     16700 TIP3     2794     TIP3     OH2      OT      -0.834000       15.9994           0
     16701 TIP3     2794     TIP3     H1       HT       0.417000       1.00800           0
     16702 TIP3     2794     TIP3     H2       HT       0.417000       1.00800           0
     16703 TIP3     2795     TIP3     OH2      OT      -0.834000       15.9994           0
     16704 TIP3     2795     TIP3     H1       HT       0.417000       1.00800           0
     16705 TIP3     2795     TIP3     H2       HT       0.417000       1.00800           0
     16706 TIP3     2796     TIP3     OH2      OT      -0.834000       15.9994           0
     16707 TIP3     2796     TIP3     H1       HT       0.417000       1.00800           0
     16708 TIP3     2796     TIP3     H2       HT       0.417000       1.00800           0
     16709 TIP3     2797     TIP3     OH2      OT      -0.834000       15.9994           0
     16710 TIP3     2797     TIP3     H1       HT       0.417000       1.00800           0
     16711 TIP3     2797     TIP3     H2       HT       0.417000       1.00800           0
     16712 TIP3     2798     TIP3     OH2      OT      -0.834000       15.9994           0
     16713 TIP3     2798     TIP3     H1       HT       0.417000       1.00800           0
     16714 TIP3     2798     TIP3     H2       HT       0.417000       1.00800           0
     16715 TIP3     2799     TIP3     OH2      OT      -0.834000       15.9994           0
     16716 TIP3     2799     TIP3     H1       HT       0.417000       1.00800           0
     16717 TIP3     2799     TIP3     H2       HT       0.417000       1.00800           0
     16718 TIP3     2800     TIP3     OH2      OT      -0.834000       15.9994           0
     16719 TIP3     2800     TIP3     H1       HT       0.417000       1.00800           0
     16720 TIP3     2800     TIP3     H2       HT       0.417000       1.00800           0
     16721 TIP3     2801     TIP3     OH2      OT      -0.834000       15.9994           0
     16722 TIP3     2801     TIP3     H1       HT       0.417000       1.00800           0
     16723 TIP3     2801     TIP3     H2       HT       0.417000       1.00800           0
     16724 TIP3     2802     TIP3     OH2      OT      -0.834000       15.9994           0
     16725 TIP3     2802     TIP3     H1       HT       0.417000       1.00800           0
     16726 TIP3     2802     TIP3     H2       HT       0.417000       1.00800           0
     16727 TIP3     2803     TIP3     OH2      OT      -0.834000       15.9994           0
     16728 TIP3     2803     TIP3     H1       HT       0.417000       1.00800           0
     16729 TIP3     2803     TIP3     H2       HT       0.417000       1.00800           0
     16730 TIP3     2804     TIP3     OH2      OT      -0.834000       15.9994           0
     16731 TIP3     2804     TIP3     H1       HT       0.417000       1.00800           0
     16732 TIP3     2804     TIP3     H2       HT       0.417000       1.00800           0
     16733 TIP3     2805     TIP3     OH2      OT      -0.834000       15.9994           0
     16734 TIP3     2805     TIP3     H1       HT       0.417000       1.00800           0
     16735 TIP3     2805     TIP3     H2       HT       0.417000       1.00800           0
     16736 TIP3     2806     TIP3     OH2      OT      -0.834000       15.9994           0
     16737 TIP3     2806     TIP3     H1       HT       0.417000       1.00800           0
     16738 TIP3     2806     TIP3     H2       HT       0.417000       1.00800           0
     16739 TIP3     2807     TIP3     OH2      OT      -0.834000       15.9994           0
     16740 TIP3     2807     TIP3     H1       HT       0.417000       1.00800           0
     16741 TIP3     2807     TIP3     H2       HT       0.417000       1.00800           0
     16742 TIP3     2808     TIP3     OH2      OT      -0.834000       15.9994           0
     16743 TIP3     2808     TIP3     H1       HT       0.417000       1.00800           0
     16744 TIP3     2808     TIP3     H2       HT       0.417000       1.00800           0
     16745 TIP3     2809     TIP3     OH2      OT      -0.834000       15.9994           0
     16746 TIP3     2809     TIP3     H1       HT       0.417000       1.00800           0
     16747 TIP3     2809     TIP3     H2       HT       0.417000       1.00800           0
     16748 TIP3     2810     TIP3     OH2      OT      -0.834000       15.9994           0
     16749 TIP3     2810     TIP3     H1       HT       0.417000       1.00800           0
     16750 TIP3     2810     TIP3     H2       HT       0.417000       1.00800           0
     16751 TIP3     2811     TIP3     OH2      OT      -0.834000       15.9994           0
     16752 TIP3     2811     TIP3     H1       HT       0.417000       1.00800           0
     16753 TIP3     2811     TIP3     H2       HT       0.417000       1.00800           0
     16754 TIP3     2812     TIP3     OH2      OT      -0.834000       15.9994           0
     16755 TIP3     2812     TIP3     H1       HT       0.417000       1.00800           0
     16756 TIP3     2812     TIP3     H2       HT       0.417000       1.00800           0
     16757 TIP3     2813     TIP3     OH2      OT      -0.834000       15.9994           0
     16758 TIP3     2813     TIP3     H1       HT       0.417000       1.00800           0
     16759 TIP3     2813     TIP3     H2       HT       0.417000       1.00800           0
     16760 TIP3     2814     TIP3     OH2      OT      -0.834000       15.9994           0
     16761 TIP3     2814     TIP3     H1       HT       0.417000       1.00800           0
     16762 TIP3     2814     TIP3     H2       HT       0.417000       1.00800           0
     16763 TIP3     2815     TIP3     OH2      OT      -0.834000       15.9994           0
     16764 TIP3     2815     TIP3     H1       HT       0.417000       1.00800           0
     16765 TIP3     2815     TIP3     H2       HT       0.417000       1.00800           0
     16766 TIP3     2816     TIP3     OH2      OT      -0.834000       15.9994           0
     16767 TIP3     2816     TIP3     H1       HT       0.417000       1.00800           0
     16768 TIP3     2816     TIP3     H2       HT       0.417000       1.00800           0
     16769 TIP3     2817     TIP3     OH2      OT      -0.834000       15.9994           0
     16770 TIP3     2817     TIP3     H1       HT       0.417000       1.00800           0
     16771 TIP3     2817     TIP3     H2       HT       0.417000       1.00800           0
     16772 TIP3     2818     TIP3     OH2      OT      -0.834000       15.9994           0
     16773 TIP3     2818     TIP3     H1       HT       0.417000       1.00800           0
     16774 TIP3     2818     TIP3     H2       HT       0.417000       1.00800           0
     16775 TIP3     2819     TIP3     OH2      OT      -0.834000       15.9994           0
     16776 TIP3     2819     TIP3     H1       HT       0.417000       1.00800           0
     16777 TIP3     2819     TIP3     H2       HT       0.417000       1.00800           0
     16778 TIP3     2820     TIP3     OH2      OT      -0.834000       15.9994           0
     16779 TIP3     2820     TIP3     H1       HT       0.417000       1.00800           0
     16780 TIP3     2820     TIP3     H2       HT       0.417000       1.00800           0
     16781 TIP3     2821     TIP3     OH2      OT      -0.834000       15.9994           0
     16782 TIP3     2821     TIP3     H1       HT       0.417000       1.00800           0
     16783 TIP3     2821     TIP3     H2       HT       0.417000       1.00800           0
     16784 TIP3     2822     TIP3     OH2      OT      -0.834000       15.9994           0
     16785 TIP3     2822     TIP3     H1       HT       0.417000       1.00800           0
     16786 TIP3     2822     TIP3     H2       HT       0.417000       1.00800           0
     16787 TIP3     2823     TIP3     OH2      OT      -0.834000       15.9994           0
     16788 TIP3     2823     TIP3     H1       HT       0.417000       1.00800           0
     16789 TIP3     2823     TIP3     H2       HT       0.417000       1.00800           0
     16790 TIP3     2824     TIP3     OH2      OT      -0.834000       15.9994           0
     16791 TIP3     2824     TIP3     H1       HT       0.417000       1.00800           0
     16792 TIP3     2824     TIP3     H2       HT       0.417000       1.00800           0
     16793 TIP3     2825     TIP3     OH2      OT      -0.834000       15.9994           0
     16794 TIP3     2825     TIP3     H1       HT       0.417000       1.00800           0
     16795 TIP3     2825     TIP3     H2       HT       0.417000       1.00800           0
     16796 TIP3     2826     TIP3     OH2      OT      -0.834000       15.9994           0
     16797 TIP3     2826     TIP3     H1       HT       0.417000       1.00800           0
     16798 TIP3     2826     TIP3     H2       HT       0.417000       1.00800           0
     16799 TIP3     2827     TIP3     OH2      OT      -0.834000       15.9994           0
     16800 TIP3     2827     TIP3     H1       HT       0.417000       1.00800           0
     16801 TIP3     2827     TIP3     H2       HT       0.417000       1.00800           0
     16802 TIP3     2828     TIP3     OH2      OT      -0.834000       15.9994           0
     16803 TIP3     2828     TIP3     H1       HT       0.417000       1.00800           0
     16804 TIP3     2828     TIP3     H2       HT       0.417000       1.00800           0
     16805 TIP3     2829     TIP3     OH2      OT      -0.834000       15.9994           0
     16806 TIP3     2829     TIP3     H1       HT       0.417000       1.00800           0
     16807 TIP3     2829     TIP3     H2       HT       0.417000       1.00800           0
     16808 TIP3     2830     TIP3     OH2      OT      -0.834000       15.9994           0
     16809 TIP3     2830     TIP3     H1       HT       0.417000       1.00800           0
     16810 TIP3     2830     TIP3     H2       HT       0.417000       1.00800           0
     16811 TIP3     2831     TIP3     OH2      OT      -0.834000       15.9994           0
     16812 TIP3     2831     TIP3     H1       HT       0.417000       1.00800           0
     16813 TIP3     2831     TIP3     H2       HT       0.417000       1.00800           0
     16814 TIP3     2832     TIP3     OH2      OT      -0.834000       15.9994           0
     16815 TIP3     2832     TIP3     H1       HT       0.417000       1.00800           0
     16816 TIP3     2832     TIP3     H2       HT       0.417000       1.00800           0
     16817 TIP3     2833     TIP3     OH2      OT      -0.834000       15.9994           0
     16818 TIP3     2833     TIP3     H1       HT       0.417000       1.00800           0
     16819 TIP3     2833     TIP3     H2       HT       0.417000       1.00800           0
     16820 TIP3     2834     TIP3     OH2      OT      -0.834000       15.9994           0
     16821 TIP3     2834     TIP3     H1       HT       0.417000       1.00800           0
     16822 TIP3     2834     TIP3     H2       HT       0.417000       1.00800           0
     16823 TIP3     2835     TIP3     OH2      OT      -0.834000       15.9994           0
     16824 TIP3     2835     TIP3     H1       HT       0.417000       1.00800           0
     16825 TIP3     2835     TIP3     H2       HT       0.417000       1.00800           0
     16826 TIP3     2836     TIP3     OH2      OT      -0.834000       15.9994           0
     16827 TIP3     2836     TIP3     H1       HT       0.417000       1.00800           0
     16828 TIP3     2836     TIP3     H2       HT       0.417000       1.00800           0
     16829 TIP3     2837     TIP3     OH2      OT      -0.834000       15.9994           0
     16830 TIP3     2837     TIP3     H1       HT       0.417000       1.00800           0
     16831 TIP3     2837     TIP3     H2       HT       0.417000       1.00800           0
     16832 TIP3     2838     TIP3     OH2      OT      -0.834000       15.9994           0
     16833 TIP3     2838     TIP3     H1       HT       0.417000       1.00800           0
     16834 TIP3     2838     TIP3     H2       HT       0.417000       1.00800           0
     16835 TIP3     2839     TIP3     OH2      OT      -0.834000       15.9994           0
     16836 TIP3     2839     TIP3     H1       HT       0.417000       1.00800           0
     16837 TIP3     2839     TIP3     H2       HT       0.417000       1.00800           0
     16838 TIP3     2840     TIP3     OH2      OT      -0.834000       15.9994           0
     16839 TIP3     2840     TIP3     H1       HT       0.417000       1.00800           0
     16840 TIP3     2840     TIP3     H2       HT       0.417000       1.00800           0
     16841 TIP3     2841     TIP3     OH2      OT      -0.834000       15.9994           0
     16842 TIP3     2841     TIP3     H1       HT       0.417000       1.00800           0
     16843 TIP3     2841     TIP3     H2       HT       0.417000       1.00800           0
     16844 TIP3     2842     TIP3     OH2      OT      -0.834000       15.9994           0
     16845 TIP3     2842     TIP3     H1       HT       0.417000       1.00800           0
     16846 TIP3     2842     TIP3     H2       HT       0.417000       1.00800           0
     16847 TIP3     2843     TIP3     OH2      OT      -0.834000       15.9994           0
     16848 TIP3     2843     TIP3     H1       HT       0.417000       1.00800           0
     16849 TIP3     2843     TIP3     H2       HT       0.417000       1.00800           0
     16850 TIP3     2844     TIP3     OH2      OT      -0.834000       15.9994           0
     16851 TIP3     2844     TIP3     H1       HT       0.417000       1.00800           0
     16852 TIP3     2844     TIP3     H2       HT       0.417000       1.00800           0
     16853 TIP3     2845     TIP3     OH2      OT      -0.834000       15.9994           0
     16854 TIP3     2845     TIP3     H1       HT       0.417000       1.00800           0
     16855 TIP3     2845     TIP3     H2       HT       0.417000       1.00800           0
     16856 TIP3     2846     TIP3     OH2      OT      -0.834000       15.9994           0
     16857 TIP3     2846     TIP3     H1       HT       0.417000       1.00800           0
     16858 TIP3     2846     TIP3     H2       HT       0.417000       1.00800           0
     16859 TIP3     2847     TIP3     OH2      OT      -0.834000       15.9994           0
     16860 TIP3     2847     TIP3     H1       HT       0.417000       1.00800           0
     16861 TIP3     2847     TIP3     H2       HT       0.417000       1.00800           0
     16862 TIP3     2848     TIP3     OH2      OT      -0.834000       15.9994           0
     16863 TIP3     2848     TIP3     H1       HT       0.417000       1.00800           0
     16864 TIP3     2848     TIP3     H2       HT       0.417000       1.00800           0
     16865 TIP3     2849     TIP3     OH2      OT      -0.834000       15.9994           0
     16866 TIP3     2849     TIP3     H1       HT       0.417000       1.00800           0
     16867 TIP3     2849     TIP3     H2       HT       0.417000       1.00800           0
     16868 TIP3     2850     TIP3     OH2      OT      -0.834000       15.9994           0
     16869 TIP3     2850     TIP3     H1       HT       0.417000       1.00800           0
     16870 TIP3     2850     TIP3     H2       HT       0.417000       1.00800           0
     16871 TIP3     2851     TIP3     OH2      OT      -0.834000       15.9994           0
     16872 TIP3     2851     TIP3     H1       HT       0.417000       1.00800           0
     16873 TIP3     2851     TIP3     H2       HT       0.417000       1.00800           0
     16874 TIP3     2852     TIP3     OH2      OT      -0.834000       15.9994           0
     16875 TIP3     2852     TIP3     H1       HT       0.417000       1.00800           0
     16876 TIP3     2852     TIP3     H2       HT       0.417000       1.00800           0
     16877 TIP3     2853     TIP3     OH2      OT      -0.834000       15.9994           0
     16878 TIP3     2853     TIP3     H1       HT       0.417000       1.00800           0
     16879 TIP3     2853     TIP3     H2       HT       0.417000       1.00800           0
     16880 TIP3     2854     TIP3     OH2      OT      -0.834000       15.9994           0
     16881 TIP3     2854     TIP3     H1       HT       0.417000       1.00800           0
     16882 TIP3     2854     TIP3     H2       HT       0.417000       1.00800           0
     16883 TIP3     2855     TIP3     OH2      OT      -0.834000       15.9994           0
     16884 TIP3     2855     TIP3     H1       HT       0.417000       1.00800           0
     16885 TIP3     2855     TIP3     H2       HT       0.417000       1.00800           0
     16886 TIP3     2856     TIP3     OH2      OT      -0.834000       15.9994           0
     16887 TIP3     2856     TIP3     H1       HT       0.417000       1.00800           0
     16888 TIP3     2856     TIP3     H2       HT       0.417000       1.00800           0
     16889 TIP3     2857     TIP3     OH2      OT      -0.834000       15.9994           0
     16890 TIP3     2857     TIP3     H1       HT       0.417000       1.00800           0
     16891 TIP3     2857     TIP3     H2       HT       0.417000       1.00800           0
     16892 TIP3     2858     TIP3     OH2      OT      -0.834000       15.9994           0
     16893 TIP3     2858     TIP3     H1       HT       0.417000       1.00800           0
     16894 TIP3     2858     TIP3     H2       HT       0.417000       1.00800           0
     16895 TIP3     2859     TIP3     OH2      OT      -0.834000       15.9994           0
     16896 TIP3     2859     TIP3     H1       HT       0.417000       1.00800           0
     16897 TIP3     2859     TIP3     H2       HT       0.417000       1.00800           0
     16898 TIP3     2860     TIP3     OH2      OT      -0.834000       15.9994           0
     16899 TIP3     2860     TIP3     H1       HT       0.417000       1.00800           0
     16900 TIP3     2860     TIP3     H2       HT       0.417000       1.00800           0
     16901 TIP3     2861     TIP3     OH2      OT      -0.834000       15.9994           0
     16902 TIP3     2861     TIP3     H1       HT       0.417000       1.00800           0
     16903 TIP3     2861     TIP3     H2       HT       0.417000       1.00800           0
     16904 TIP3     2862     TIP3     OH2      OT      -0.834000       15.9994           0
     16905 TIP3     2862     TIP3     H1       HT       0.417000       1.00800           0
     16906 TIP3     2862     TIP3     H2       HT       0.417000       1.00800           0
     16907 TIP3     2863     TIP3     OH2      OT      -0.834000       15.9994           0
     16908 TIP3     2863     TIP3     H1       HT       0.417000       1.00800           0
     16909 TIP3     2863     TIP3     H2       HT       0.417000       1.00800           0
     16910 TIP3     2864     TIP3     OH2      OT      -0.834000       15.9994           0
     16911 TIP3     2864     TIP3     H1       HT       0.417000       1.00800           0
     16912 TIP3     2864     TIP3     H2       HT       0.417000       1.00800           0
     16913 TIP3     2865     TIP3     OH2      OT      -0.834000       15.9994           0
     16914 TIP3     2865     TIP3     H1       HT       0.417000       1.00800           0
     16915 TIP3     2865     TIP3     H2       HT       0.417000       1.00800           0
     16916 TIP3     2866     TIP3     OH2      OT      -0.834000       15.9994           0
     16917 TIP3     2866     TIP3     H1       HT       0.417000       1.00800           0
     16918 TIP3     2866     TIP3     H2       HT       0.417000       1.00800           0
     16919 TIP3     2867     TIP3     OH2      OT      -0.834000       15.9994           0
     16920 TIP3     2867     TIP3     H1       HT       0.417000       1.00800           0
     16921 TIP3     2867     TIP3     H2       HT       0.417000       1.00800           0
     16922 TIP3     2868     TIP3     OH2      OT      -0.834000       15.9994           0
     16923 TIP3     2868     TIP3     H1       HT       0.417000       1.00800           0
     16924 TIP3     2868     TIP3     H2       HT       0.417000       1.00800           0
     16925 TIP3     2869     TIP3     OH2      OT      -0.834000       15.9994           0
     16926 TIP3     2869     TIP3     H1       HT       0.417000       1.00800           0
     16927 TIP3     2869     TIP3     H2       HT       0.417000       1.00800           0
     16928 TIP3     2870     TIP3     OH2      OT      -0.834000       15.9994           0
     16929 TIP3     2870     TIP3     H1       HT       0.417000       1.00800           0
     16930 TIP3     2870     TIP3     H2       HT       0.417000       1.00800           0
     16931 TIP3     2871     TIP3     OH2      OT      -0.834000       15.9994           0
     16932 TIP3     2871     TIP3     H1       HT       0.417000       1.00800           0
     16933 TIP3     2871     TIP3     H2       HT       0.417000       1.00800           0
     16934 TIP3     2872     TIP3     OH2      OT      -0.834000       15.9994           0
     16935 TIP3     2872     TIP3     H1       HT       0.417000       1.00800           0
     16936 TIP3     2872     TIP3     H2       HT       0.417000       1.00800           0
     16937 TIP3     2873     TIP3     OH2      OT      -0.834000       15.9994           0
     16938 TIP3     2873     TIP3     H1       HT       0.417000       1.00800           0
     16939 TIP3     2873     TIP3     H2       HT       0.417000       1.00800           0
     16940 TIP3     2874     TIP3     OH2      OT      -0.834000       15.9994           0
     16941 TIP3     2874     TIP3     H1       HT       0.417000       1.00800           0
     16942 TIP3     2874     TIP3     H2       HT       0.417000       1.00800           0
     16943 TIP3     2875     TIP3     OH2      OT      -0.834000       15.9994           0
     16944 TIP3     2875     TIP3     H1       HT       0.417000       1.00800           0
     16945 TIP3     2875     TIP3     H2       HT       0.417000       1.00800           0
     16946 TIP3     2876     TIP3     OH2      OT      -0.834000       15.9994           0
     16947 TIP3     2876     TIP3     H1       HT       0.417000       1.00800           0
     16948 TIP3     2876     TIP3     H2       HT       0.417000       1.00800           0
     16949 TIP3     2877     TIP3     OH2      OT      -0.834000       15.9994           0
     16950 TIP3     2877     TIP3     H1       HT       0.417000       1.00800           0
     16951 TIP3     2877     TIP3     H2       HT       0.417000       1.00800           0
     16952 TIP3     2878     TIP3     OH2      OT      -0.834000       15.9994           0
     16953 TIP3     2878     TIP3     H1       HT       0.417000       1.00800           0
     16954 TIP3     2878     TIP3     H2       HT       0.417000       1.00800           0
     16955 TIP3     2879     TIP3     OH2      OT      -0.834000       15.9994           0
     16956 TIP3     2879     TIP3     H1       HT       0.417000       1.00800           0
     16957 TIP3     2879     TIP3     H2       HT       0.417000       1.00800           0
     16958 TIP3     2880     TIP3     OH2      OT      -0.834000       15.9994           0
     16959 TIP3     2880     TIP3     H1       HT       0.417000       1.00800           0
     16960 TIP3     2880     TIP3     H2       HT       0.417000       1.00800           0
     16961 TIP3     2881     TIP3     OH2      OT      -0.834000       15.9994           0
     16962 TIP3     2881     TIP3     H1       HT       0.417000       1.00800           0
     16963 TIP3     2881     TIP3     H2       HT       0.417000       1.00800           0
     16964 TIP3     2882     TIP3     OH2      OT      -0.834000       15.9994           0
     16965 TIP3     2882     TIP3     H1       HT       0.417000       1.00800           0
     16966 TIP3     2882     TIP3     H2       HT       0.417000       1.00800           0
     16967 TIP3     2883     TIP3     OH2      OT      -0.834000       15.9994           0
     16968 TIP3     2883     TIP3     H1       HT       0.417000       1.00800           0
     16969 TIP3     2883     TIP3     H2       HT       0.417000       1.00800           0
     16970 TIP3     2884     TIP3     OH2      OT      -0.834000       15.9994           0
     16971 TIP3     2884     TIP3     H1       HT       0.417000       1.00800           0
     16972 TIP3     2884     TIP3     H2       HT       0.417000       1.00800           0
     16973 TIP3     2885     TIP3     OH2      OT      -0.834000       15.9994           0
     16974 TIP3     2885     TIP3     H1       HT       0.417000       1.00800           0
     16975 TIP3     2885     TIP3     H2       HT       0.417000       1.00800           0
     16976 TIP3     2886     TIP3     OH2      OT      -0.834000       15.9994           0
     16977 TIP3     2886     TIP3     H1       HT       0.417000       1.00800           0
     16978 TIP3     2886     TIP3     H2       HT       0.417000       1.00800           0
     16979 TIP3     2887     TIP3     OH2      OT      -0.834000       15.9994           0
     16980 TIP3     2887     TIP3     H1       HT       0.417000       1.00800           0
     16981 TIP3     2887     TIP3     H2       HT       0.417000       1.00800           0
     16982 TIP3     2888     TIP3     OH2      OT      -0.834000       15.9994           0
     16983 TIP3     2888     TIP3     H1       HT       0.417000       1.00800           0
     16984 TIP3     2888     TIP3     H2       HT       0.417000       1.00800           0
     16985 TIP3     2889     TIP3     OH2      OT      -0.834000       15.9994           0
     16986 TIP3     2889     TIP3     H1       HT       0.417000       1.00800           0
     16987 TIP3     2889     TIP3     H2       HT       0.417000       1.00800           0
     16988 TIP3     2890     TIP3     OH2      OT      -0.834000       15.9994           0
     16989 TIP3     2890     TIP3     H1       HT       0.417000       1.00800           0
     16990 TIP3     2890     TIP3     H2       HT       0.417000       1.00800           0
     16991 TIP3     2891     TIP3     OH2      OT      -0.834000       15.9994           0
     16992 TIP3     2891     TIP3     H1       HT       0.417000       1.00800           0
     16993 TIP3     2891     TIP3     H2       HT       0.417000       1.00800           0
     16994 TIP3     2892     TIP3     OH2      OT      -0.834000       15.9994           0
     16995 TIP3     2892     TIP3     H1       HT       0.417000       1.00800           0
     16996 TIP3     2892     TIP3     H2       HT       0.417000       1.00800           0
     16997 TIP3     2893     TIP3     OH2      OT      -0.834000       15.9994           0
     16998 TIP3     2893     TIP3     H1       HT       0.417000       1.00800           0
     16999 TIP3     2893     TIP3     H2       HT       0.417000       1.00800           0
     17000 TIP3     2894     TIP3     OH2      OT      -0.834000       15.9994           0
     17001 TIP3     2894     TIP3     H1       HT       0.417000       1.00800           0
     17002 TIP3     2894     TIP3     H2       HT       0.417000       1.00800           0
     17003 TIP3     2895     TIP3     OH2      OT      -0.834000       15.9994           0
     17004 TIP3     2895     TIP3     H1       HT       0.417000       1.00800           0
     17005 TIP3     2895     TIP3     H2       HT       0.417000       1.00800           0
     17006 TIP3     2896     TIP3     OH2      OT      -0.834000       15.9994           0
     17007 TIP3     2896     TIP3     H1       HT       0.417000       1.00800           0
     17008 TIP3     2896     TIP3     H2       HT       0.417000       1.00800           0
     17009 TIP3     2897     TIP3     OH2      OT      -0.834000       15.9994           0
     17010 TIP3     2897     TIP3     H1       HT       0.417000       1.00800           0
     17011 TIP3     2897     TIP3     H2       HT       0.417000       1.00800           0
     17012 TIP3     2898     TIP3     OH2      OT      -0.834000       15.9994           0
     17013 TIP3     2898     TIP3     H1       HT       0.417000       1.00800           0
     17014 TIP3     2898     TIP3     H2       HT       0.417000       1.00800           0
     17015 TIP3     2899     TIP3     OH2      OT      -0.834000       15.9994           0
     17016 TIP3     2899     TIP3     H1       HT       0.417000       1.00800           0
     17017 TIP3     2899     TIP3     H2       HT       0.417000       1.00800           0
     17018 TIP3     2900     TIP3     OH2      OT      -0.834000       15.9994           0
     17019 TIP3     2900     TIP3     H1       HT       0.417000       1.00800           0
     17020 TIP3     2900     TIP3     H2       HT       0.417000       1.00800           0
     17021 TIP3     2901     TIP3     OH2      OT      -0.834000       15.9994           0
     17022 TIP3     2901     TIP3     H1       HT       0.417000       1.00800           0
     17023 TIP3     2901     TIP3     H2       HT       0.417000       1.00800           0
     17024 TIP3     2902     TIP3     OH2      OT      -0.834000       15.9994           0
     17025 TIP3     2902     TIP3     H1       HT       0.417000       1.00800           0
     17026 TIP3     2902     TIP3     H2       HT       0.417000       1.00800           0
     17027 TIP3     2903     TIP3     OH2      OT      -0.834000       15.9994           0
     17028 TIP3     2903     TIP3     H1       HT       0.417000       1.00800           0
     17029 TIP3     2903     TIP3     H2       HT       0.417000       1.00800           0
     17030 TIP3     2904     TIP3     OH2      OT      -0.834000       15.9994           0
     17031 TIP3     2904     TIP3     H1       HT       0.417000       1.00800           0
     17032 TIP3     2904     TIP3     H2       HT       0.417000       1.00800           0
     17033 TIP3     2905     TIP3     OH2      OT      -0.834000       15.9994           0
     17034 TIP3     2905     TIP3     H1       HT       0.417000       1.00800           0
     17035 TIP3     2905     TIP3     H2       HT       0.417000       1.00800           0
     17036 TIP3     2906     TIP3     OH2      OT      -0.834000       15.9994           0
     17037 TIP3     2906     TIP3     H1       HT       0.417000       1.00800           0
     17038 TIP3     2906     TIP3     H2       HT       0.417000       1.00800           0
     17039 TIP3     2907     TIP3     OH2      OT      -0.834000       15.9994           0
     17040 TIP3     2907     TIP3     H1       HT       0.417000       1.00800           0
     17041 TIP3     2907     TIP3     H2       HT       0.417000       1.00800           0
     17042 TIP3     2908     TIP3     OH2      OT      -0.834000       15.9994           0
     17043 TIP3     2908     TIP3     H1       HT       0.417000       1.00800           0
     17044 TIP3     2908     TIP3     H2       HT       0.417000       1.00800           0
     17045 TIP3     2909     TIP3     OH2      OT      -0.834000       15.9994           0
     17046 TIP3     2909     TIP3     H1       HT       0.417000       1.00800           0
     17047 TIP3     2909     TIP3     H2       HT       0.417000       1.00800           0
     17048 TIP3     2910     TIP3     OH2      OT      -0.834000       15.9994           0
     17049 TIP3     2910     TIP3     H1       HT       0.417000       1.00800           0
     17050 TIP3     2910     TIP3     H2       HT       0.417000       1.00800           0
     17051 TIP3     2911     TIP3     OH2      OT      -0.834000       15.9994           0
     17052 TIP3     2911     TIP3     H1       HT       0.417000       1.00800           0
     17053 TIP3     2911     TIP3     H2       HT       0.417000       1.00800           0
     17054 TIP3     2912     TIP3     OH2      OT      -0.834000       15.9994           0
     17055 TIP3     2912     TIP3     H1       HT       0.417000       1.00800           0
     17056 TIP3     2912     TIP3     H2       HT       0.417000       1.00800           0
     17057 TIP3     2913     TIP3     OH2      OT      -0.834000       15.9994           0
     17058 TIP3     2913     TIP3     H1       HT       0.417000       1.00800           0
     17059 TIP3     2913     TIP3     H2       HT       0.417000       1.00800           0
     17060 TIP3     2914     TIP3     OH2      OT      -0.834000       15.9994           0
     17061 TIP3     2914     TIP3     H1       HT       0.417000       1.00800           0
     17062 TIP3     2914     TIP3     H2       HT       0.417000       1.00800           0
     17063 TIP3     2915     TIP3     OH2      OT      -0.834000       15.9994           0
     17064 TIP3     2915     TIP3     H1       HT       0.417000       1.00800           0
     17065 TIP3     2915     TIP3     H2       HT       0.417000       1.00800           0
     17066 TIP3     2916     TIP3     OH2      OT      -0.834000       15.9994           0
     17067 TIP3     2916     TIP3     H1       HT       0.417000       1.00800           0
     17068 TIP3     2916     TIP3     H2       HT       0.417000       1.00800           0
     17069 TIP3     2917     TIP3     OH2      OT      -0.834000       15.9994           0
     17070 TIP3     2917     TIP3     H1       HT       0.417000       1.00800           0
     17071 TIP3     2917     TIP3     H2       HT       0.417000       1.00800           0
     17072 TIP3     2918     TIP3     OH2      OT      -0.834000       15.9994           0
     17073 TIP3     2918     TIP3     H1       HT       0.417000       1.00800           0
     17074 TIP3     2918     TIP3     H2       HT       0.417000       1.00800           0
     17075 TIP3     2919     TIP3     OH2      OT      -0.834000       15.9994           0
     17076 TIP3     2919     TIP3     H1       HT       0.417000       1.00800           0
     17077 TIP3     2919     TIP3     H2       HT       0.417000       1.00800           0
     17078 TIP3     2920     TIP3     OH2      OT      -0.834000       15.9994           0
     17079 TIP3     2920     TIP3     H1       HT       0.417000       1.00800           0
     17080 TIP3     2920     TIP3     H2       HT       0.417000       1.00800           0
     17081 TIP3     2921     TIP3     OH2      OT      -0.834000       15.9994           0
     17082 TIP3     2921     TIP3     H1       HT       0.417000       1.00800           0
     17083 TIP3     2921     TIP3     H2       HT       0.417000       1.00800           0
     17084 TIP3     2922     TIP3     OH2      OT      -0.834000       15.9994           0
     17085 TIP3     2922     TIP3     H1       HT       0.417000       1.00800           0
     17086 TIP3     2922     TIP3     H2       HT       0.417000       1.00800           0
     17087 TIP3     2923     TIP3     OH2      OT      -0.834000       15.9994           0
     17088 TIP3     2923     TIP3     H1       HT       0.417000       1.00800           0
     17089 TIP3     2923     TIP3     H2       HT       0.417000       1.00800           0
     17090 TIP3     2924     TIP3     OH2      OT      -0.834000       15.9994           0
     17091 TIP3     2924     TIP3     H1       HT       0.417000       1.00800           0
     17092 TIP3     2924     TIP3     H2       HT       0.417000       1.00800           0
     17093 TIP3     2925     TIP3     OH2      OT      -0.834000       15.9994           0
     17094 TIP3     2925     TIP3     H1       HT       0.417000       1.00800           0
     17095 TIP3     2925     TIP3     H2       HT       0.417000       1.00800           0
     17096 TIP3     2926     TIP3     OH2      OT      -0.834000       15.9994           0
     17097 TIP3     2926     TIP3     H1       HT       0.417000       1.00800           0
     17098 TIP3     2926     TIP3     H2       HT       0.417000       1.00800           0
     17099 TIP3     2927     TIP3     OH2      OT      -0.834000       15.9994           0
     17100 TIP3     2927     TIP3     H1       HT       0.417000       1.00800           0
     17101 TIP3     2927     TIP3     H2       HT       0.417000       1.00800           0
     17102 TIP3     2928     TIP3     OH2      OT      -0.834000       15.9994           0
     17103 TIP3     2928     TIP3     H1       HT       0.417000       1.00800           0
     17104 TIP3     2928     TIP3     H2       HT       0.417000       1.00800           0
     17105 TIP3     2929     TIP3     OH2      OT      -0.834000       15.9994           0
     17106 TIP3     2929     TIP3     H1       HT       0.417000       1.00800           0
     17107 TIP3     2929     TIP3     H2       HT       0.417000       1.00800           0
     17108 TIP3     2930     TIP3     OH2      OT      -0.834000       15.9994           0
     17109 TIP3     2930     TIP3     H1       HT       0.417000       1.00800           0
     17110 TIP3     2930     TIP3     H2       HT       0.417000       1.00800           0
     17111 TIP3     2931     TIP3     OH2      OT      -0.834000       15.9994           0
     17112 TIP3     2931     TIP3     H1       HT       0.417000       1.00800           0
     17113 TIP3     2931     TIP3     H2       HT       0.417000       1.00800           0
     17114 TIP3     2932     TIP3     OH2      OT      -0.834000       15.9994           0
     17115 TIP3     2932     TIP3     H1       HT       0.417000       1.00800           0
     17116 TIP3     2932     TIP3     H2       HT       0.417000       1.00800           0
     17117 TIP3     2933     TIP3     OH2      OT      -0.834000       15.9994           0
     17118 TIP3     2933     TIP3     H1       HT       0.417000       1.00800           0
     17119 TIP3     2933     TIP3     H2       HT       0.417000       1.00800           0
     17120 TIP3     2934     TIP3     OH2      OT      -0.834000       15.9994           0
     17121 TIP3     2934     TIP3     H1       HT       0.417000       1.00800           0
     17122 TIP3     2934     TIP3     H2       HT       0.417000       1.00800           0
     17123 TIP3     2935     TIP3     OH2      OT      -0.834000       15.9994           0
     17124 TIP3     2935     TIP3     H1       HT       0.417000       1.00800           0
     17125 TIP3     2935     TIP3     H2       HT       0.417000       1.00800           0
     17126 TIP3     2936     TIP3     OH2      OT      -0.834000       15.9994           0
     17127 TIP3     2936     TIP3     H1       HT       0.417000       1.00800           0
     17128 TIP3     2936     TIP3     H2       HT       0.417000       1.00800           0
     17129 TIP3     2937     TIP3     OH2      OT      -0.834000       15.9994           0
     17130 TIP3     2937     TIP3     H1       HT       0.417000       1.00800           0
     17131 TIP3     2937     TIP3     H2       HT       0.417000       1.00800           0
     17132 TIP3     2938     TIP3     OH2      OT      -0.834000       15.9994           0
     17133 TIP3     2938     TIP3     H1       HT       0.417000       1.00800           0
     17134 TIP3     2938     TIP3     H2       HT       0.417000       1.00800           0
     17135 TIP3     2939     TIP3     OH2      OT      -0.834000       15.9994           0
     17136 TIP3     2939     TIP3     H1       HT       0.417000       1.00800           0
     17137 TIP3     2939     TIP3     H2       HT       0.417000       1.00800           0
     17138 TIP3     2940     TIP3     OH2      OT      -0.834000       15.9994           0
     17139 TIP3     2940     TIP3     H1       HT       0.417000       1.00800           0
     17140 TIP3     2940     TIP3     H2       HT       0.417000       1.00800           0
     17141 TIP3     2941     TIP3     OH2      OT      -0.834000       15.9994           0
     17142 TIP3     2941     TIP3     H1       HT       0.417000       1.00800           0
     17143 TIP3     2941     TIP3     H2       HT       0.417000       1.00800           0
     17144 TIP3     2942     TIP3     OH2      OT      -0.834000       15.9994           0
     17145 TIP3     2942     TIP3     H1       HT       0.417000       1.00800           0
     17146 TIP3     2942     TIP3     H2       HT       0.417000       1.00800           0
     17147 TIP3     2943     TIP3     OH2      OT      -0.834000       15.9994           0
     17148 TIP3     2943     TIP3     H1       HT       0.417000       1.00800           0
     17149 TIP3     2943     TIP3     H2       HT       0.417000       1.00800           0
     17150 TIP3     2944     TIP3     OH2      OT      -0.834000       15.9994           0
     17151 TIP3     2944     TIP3     H1       HT       0.417000       1.00800           0
     17152 TIP3     2944     TIP3     H2       HT       0.417000       1.00800           0
     17153 TIP3     2945     TIP3     OH2      OT      -0.834000       15.9994           0
     17154 TIP3     2945     TIP3     H1       HT       0.417000       1.00800           0
     17155 TIP3     2945     TIP3     H2       HT       0.417000       1.00800           0
     17156 TIP3     2946     TIP3     OH2      OT      -0.834000       15.9994           0
     17157 TIP3     2946     TIP3     H1       HT       0.417000       1.00800           0
     17158 TIP3     2946     TIP3     H2       HT       0.417000       1.00800           0
     17159 TIP3     2947     TIP3     OH2      OT      -0.834000       15.9994           0
     17160 TIP3     2947     TIP3     H1       HT       0.417000       1.00800           0
     17161 TIP3     2947     TIP3     H2       HT       0.417000       1.00800           0
     17162 TIP3     2948     TIP3     OH2      OT      -0.834000       15.9994           0
     17163 TIP3     2948     TIP3     H1       HT       0.417000       1.00800           0
     17164 TIP3     2948     TIP3     H2       HT       0.417000       1.00800           0
     17165 TIP3     2949     TIP3     OH2      OT      -0.834000       15.9994           0
     17166 TIP3     2949     TIP3     H1       HT       0.417000       1.00800           0
     17167 TIP3     2949     TIP3     H2       HT       0.417000       1.00800           0
     17168 TIP3     2950     TIP3     OH2      OT      -0.834000       15.9994           0
     17169 TIP3     2950     TIP3     H1       HT       0.417000       1.00800           0
     17170 TIP3     2950     TIP3     H2       HT       0.417000       1.00800           0
     17171 TIP3     2951     TIP3     OH2      OT      -0.834000       15.9994           0
     17172 TIP3     2951     TIP3     H1       HT       0.417000       1.00800           0
     17173 TIP3     2951     TIP3     H2       HT       0.417000       1.00800           0
     17174 TIP3     2952     TIP3     OH2      OT      -0.834000       15.9994           0
     17175 TIP3     2952     TIP3     H1       HT       0.417000       1.00800           0
     17176 TIP3     2952     TIP3     H2       HT       0.417000       1.00800           0
     17177 TIP3     2953     TIP3     OH2      OT      -0.834000       15.9994           0
     17178 TIP3     2953     TIP3     H1       HT       0.417000       1.00800           0
     17179 TIP3     2953     TIP3     H2       HT       0.417000       1.00800           0
     17180 TIP3     2954     TIP3     OH2      OT      -0.834000       15.9994           0
     17181 TIP3     2954     TIP3     H1       HT       0.417000       1.00800           0
     17182 TIP3     2954     TIP3     H2       HT       0.417000       1.00800           0
     17183 TIP3     2955     TIP3     OH2      OT      -0.834000       15.9994           0
     17184 TIP3     2955     TIP3     H1       HT       0.417000       1.00800           0
     17185 TIP3     2955     TIP3     H2       HT       0.417000       1.00800           0
     17186 TIP3     2956     TIP3     OH2      OT      -0.834000       15.9994           0
     17187 TIP3     2956     TIP3     H1       HT       0.417000       1.00800           0
     17188 TIP3     2956     TIP3     H2       HT       0.417000       1.00800           0
     17189 TIP3     2957     TIP3     OH2      OT      -0.834000       15.9994           0
     17190 TIP3     2957     TIP3     H1       HT       0.417000       1.00800           0
     17191 TIP3     2957     TIP3     H2       HT       0.417000       1.00800           0
     17192 TIP3     2958     TIP3     OH2      OT      -0.834000       15.9994           0
     17193 TIP3     2958     TIP3     H1       HT       0.417000       1.00800           0
     17194 TIP3     2958     TIP3     H2       HT       0.417000       1.00800           0
     17195 TIP3     2959     TIP3     OH2      OT      -0.834000       15.9994           0
     17196 TIP3     2959     TIP3     H1       HT       0.417000       1.00800           0
     17197 TIP3     2959     TIP3     H2       HT       0.417000       1.00800           0
     17198 TIP3     2960     TIP3     OH2      OT      -0.834000       15.9994           0
     17199 TIP3     2960     TIP3     H1       HT       0.417000       1.00800           0
     17200 TIP3     2960     TIP3     H2       HT       0.417000       1.00800           0
     17201 TIP3     2961     TIP3     OH2      OT      -0.834000       15.9994           0
     17202 TIP3     2961     TIP3     H1       HT       0.417000       1.00800           0
     17203 TIP3     2961     TIP3     H2       HT       0.417000       1.00800           0
     17204 TIP3     2962     TIP3     OH2      OT      -0.834000       15.9994           0
     17205 TIP3     2962     TIP3     H1       HT       0.417000       1.00800           0
     17206 TIP3     2962     TIP3     H2       HT       0.417000       1.00800           0
     17207 TIP3     2963     TIP3     OH2      OT      -0.834000       15.9994           0
     17208 TIP3     2963     TIP3     H1       HT       0.417000       1.00800           0
     17209 TIP3     2963     TIP3     H2       HT       0.417000       1.00800           0
     17210 TIP3     2964     TIP3     OH2      OT      -0.834000       15.9994           0
     17211 TIP3     2964     TIP3     H1       HT       0.417000       1.00800           0
     17212 TIP3     2964     TIP3     H2       HT       0.417000       1.00800           0
     17213 TIP3     2965     TIP3     OH2      OT      -0.834000       15.9994           0
     17214 TIP3     2965     TIP3     H1       HT       0.417000       1.00800           0
     17215 TIP3     2965     TIP3     H2       HT       0.417000       1.00800           0
     17216 TIP3     2966     TIP3     OH2      OT      -0.834000       15.9994           0
     17217 TIP3     2966     TIP3     H1       HT       0.417000       1.00800           0
     17218 TIP3     2966     TIP3     H2       HT       0.417000       1.00800           0
     17219 TIP3     2967     TIP3     OH2      OT      -0.834000       15.9994           0
     17220 TIP3     2967     TIP3     H1       HT       0.417000       1.00800           0
     17221 TIP3     2967     TIP3     H2       HT       0.417000       1.00800           0
     17222 TIP3     2968     TIP3     OH2      OT      -0.834000       15.9994           0
     17223 TIP3     2968     TIP3     H1       HT       0.417000       1.00800           0
     17224 TIP3     2968     TIP3     H2       HT       0.417000       1.00800           0
     17225 TIP3     2969     TIP3     OH2      OT      -0.834000       15.9994           0
     17226 TIP3     2969     TIP3     H1       HT       0.417000       1.00800           0
     17227 TIP3     2969     TIP3     H2       HT       0.417000       1.00800           0
     17228 TIP3     2970     TIP3     OH2      OT      -0.834000       15.9994           0
     17229 TIP3     2970     TIP3     H1       HT       0.417000       1.00800           0
     17230 TIP3     2970     TIP3     H2       HT       0.417000       1.00800           0
     17231 TIP3     2971     TIP3     OH2      OT      -0.834000       15.9994           0
     17232 TIP3     2971     TIP3     H1       HT       0.417000       1.00800           0
     17233 TIP3     2971     TIP3     H2       HT       0.417000       1.00800           0
     17234 TIP3     2972     TIP3     OH2      OT      -0.834000       15.9994           0
     17235 TIP3     2972     TIP3     H1       HT       0.417000       1.00800           0
     17236 TIP3     2972     TIP3     H2       HT       0.417000       1.00800           0
     17237 TIP3     2973     TIP3     OH2      OT      -0.834000       15.9994           0
     17238 TIP3     2973     TIP3     H1       HT       0.417000       1.00800           0
     17239 TIP3     2973     TIP3     H2       HT       0.417000       1.00800           0
     17240 TIP3     2974     TIP3     OH2      OT      -0.834000       15.9994           0
     17241 TIP3     2974     TIP3     H1       HT       0.417000       1.00800           0
     17242 TIP3     2974     TIP3     H2       HT       0.417000       1.00800           0
     17243 TIP3     2975     TIP3     OH2      OT      -0.834000       15.9994           0
     17244 TIP3     2975     TIP3     H1       HT       0.417000       1.00800           0
     17245 TIP3     2975     TIP3     H2       HT       0.417000       1.00800           0
     17246 TIP3     2976     TIP3     OH2      OT      -0.834000       15.9994           0
     17247 TIP3     2976     TIP3     H1       HT       0.417000       1.00800           0
     17248 TIP3     2976     TIP3     H2       HT       0.417000       1.00800           0
     17249 TIP3     2977     TIP3     OH2      OT      -0.834000       15.9994           0
     17250 TIP3     2977     TIP3     H1       HT       0.417000       1.00800           0
     17251 TIP3     2977     TIP3     H2       HT       0.417000       1.00800           0
     17252 TIP3     2978     TIP3     OH2      OT      -0.834000       15.9994           0
     17253 TIP3     2978     TIP3     H1       HT       0.417000       1.00800           0
     17254 TIP3     2978     TIP3     H2       HT       0.417000       1.00800           0
     17255 TIP3     2979     TIP3     OH2      OT      -0.834000       15.9994           0
     17256 TIP3     2979     TIP3     H1       HT       0.417000       1.00800           0
     17257 TIP3     2979     TIP3     H2       HT       0.417000       1.00800           0
     17258 TIP3     2980     TIP3     OH2      OT      -0.834000       15.9994           0
     17259 TIP3     2980     TIP3     H1       HT       0.417000       1.00800           0
     17260 TIP3     2980     TIP3     H2       HT       0.417000       1.00800           0
     17261 TIP3     2981     TIP3     OH2      OT      -0.834000       15.9994           0
     17262 TIP3     2981     TIP3     H1       HT       0.417000       1.00800           0
     17263 TIP3     2981     TIP3     H2       HT       0.417000       1.00800           0
     17264 TIP3     2982     TIP3     OH2      OT      -0.834000       15.9994           0
     17265 TIP3     2982     TIP3     H1       HT       0.417000       1.00800           0
     17266 TIP3     2982     TIP3     H2       HT       0.417000       1.00800           0
     17267 TIP3     2983     TIP3     OH2      OT      -0.834000       15.9994           0
     17268 TIP3     2983     TIP3     H1       HT       0.417000       1.00800           0
     17269 TIP3     2983     TIP3     H2       HT       0.417000       1.00800           0
     17270 TIP3     2984     TIP3     OH2      OT      -0.834000       15.9994           0
     17271 TIP3     2984     TIP3     H1       HT       0.417000       1.00800           0
     17272 TIP3     2984     TIP3     H2       HT       0.417000       1.00800           0
     17273 TIP3     2985     TIP3     OH2      OT      -0.834000       15.9994           0
     17274 TIP3     2985     TIP3     H1       HT       0.417000       1.00800           0
     17275 TIP3     2985     TIP3     H2       HT       0.417000       1.00800           0
     17276 TIP3     2986     TIP3     OH2      OT      -0.834000       15.9994           0
     17277 TIP3     2986     TIP3     H1       HT       0.417000       1.00800           0
     17278 TIP3     2986     TIP3     H2       HT       0.417000       1.00800           0
     17279 TIP3     2987     TIP3     OH2      OT      -0.834000       15.9994           0
     17280 TIP3     2987     TIP3     H1       HT       0.417000       1.00800           0
     17281 TIP3     2987     TIP3     H2       HT       0.417000       1.00800           0
     17282 TIP3     2988     TIP3     OH2      OT      -0.834000       15.9994           0
     17283 TIP3     2988     TIP3     H1       HT       0.417000       1.00800           0
     17284 TIP3     2988     TIP3     H2       HT       0.417000       1.00800           0
     17285 TIP3     2989     TIP3     OH2      OT      -0.834000       15.9994           0
     17286 TIP3     2989     TIP3     H1       HT       0.417000       1.00800           0
     17287 TIP3     2989     TIP3     H2       HT       0.417000       1.00800           0
     17288 TIP3     2990     TIP3     OH2      OT      -0.834000       15.9994           0
     17289 TIP3     2990     TIP3     H1       HT       0.417000       1.00800           0
     17290 TIP3     2990     TIP3     H2       HT       0.417000       1.00800           0
     17291 TIP3     2991     TIP3     OH2      OT      -0.834000       15.9994           0
     17292 TIP3     2991     TIP3     H1       HT       0.417000       1.00800           0
     17293 TIP3     2991     TIP3     H2       HT       0.417000       1.00800           0
     17294 TIP3     2992     TIP3     OH2      OT      -0.834000       15.9994           0
     17295 TIP3     2992     TIP3     H1       HT       0.417000       1.00800           0
     17296 TIP3     2992     TIP3     H2       HT       0.417000       1.00800           0
     17297 TIP3     2993     TIP3     OH2      OT      -0.834000       15.9994           0
     17298 TIP3     2993     TIP3     H1       HT       0.417000       1.00800           0
     17299 TIP3     2993     TIP3     H2       HT       0.417000       1.00800           0
     17300 TIP3     2994     TIP3     OH2      OT      -0.834000       15.9994           0
     17301 TIP3     2994     TIP3     H1       HT       0.417000       1.00800           0
     17302 TIP3     2994     TIP3     H2       HT       0.417000       1.00800           0
     17303 TIP3     2995     TIP3     OH2      OT      -0.834000       15.9994           0
     17304 TIP3     2995     TIP3     H1       HT       0.417000       1.00800           0
     17305 TIP3     2995     TIP3     H2       HT       0.417000       1.00800           0
     17306 TIP3     2996     TIP3     OH2      OT      -0.834000       15.9994           0
     17307 TIP3     2996     TIP3     H1       HT       0.417000       1.00800           0
     17308 TIP3     2996     TIP3     H2       HT       0.417000       1.00800           0
     17309 TIP3     2997     TIP3     OH2      OT      -0.834000       15.9994           0
     17310 TIP3     2997     TIP3     H1       HT       0.417000       1.00800           0
     17311 TIP3     2997     TIP3     H2       HT       0.417000       1.00800           0
     17312 TIP3     2998     TIP3     OH2      OT      -0.834000       15.9994           0
     17313 TIP3     2998     TIP3     H1       HT       0.417000       1.00800           0
     17314 TIP3     2998     TIP3     H2       HT       0.417000       1.00800           0
     17315 TIP3     2999     TIP3     OH2      OT      -0.834000       15.9994           0
     17316 TIP3     2999     TIP3     H1       HT       0.417000       1.00800           0
     17317 TIP3     2999     TIP3     H2       HT       0.417000       1.00800           0
     17318 TIP3     3000     TIP3     OH2      OT      -0.834000       15.9994           0
     17319 TIP3     3000     TIP3     H1       HT       0.417000       1.00800           0
     17320 TIP3     3000     TIP3     H2       HT       0.417000       1.00800           0
     17321 TIP3     3001     TIP3     OH2      OT      -0.834000       15.9994           0
     17322 TIP3     3001     TIP3     H1       HT       0.417000       1.00800           0
     17323 TIP3     3001     TIP3     H2       HT       0.417000       1.00800           0
     17324 TIP3     3002     TIP3     OH2      OT      -0.834000       15.9994           0
     17325 TIP3     3002     TIP3     H1       HT       0.417000       1.00800           0
     17326 TIP3     3002     TIP3     H2       HT       0.417000       1.00800           0
     17327 TIP3     3003     TIP3     OH2      OT      -0.834000       15.9994           0
     17328 TIP3     3003     TIP3     H1       HT       0.417000       1.00800           0
     17329 TIP3     3003     TIP3     H2       HT       0.417000       1.00800           0
     17330 TIP3     3004     TIP3     OH2      OT      -0.834000       15.9994           0
     17331 TIP3     3004     TIP3     H1       HT       0.417000       1.00800           0
     17332 TIP3     3004     TIP3     H2       HT       0.417000       1.00800           0
     17333 TIP3     3005     TIP3     OH2      OT      -0.834000       15.9994           0
     17334 TIP3     3005     TIP3     H1       HT       0.417000       1.00800           0
     17335 TIP3     3005     TIP3     H2       HT       0.417000       1.00800           0
     17336 TIP3     3006     TIP3     OH2      OT      -0.834000       15.9994           0
     17337 TIP3     3006     TIP3     H1       HT       0.417000       1.00800           0
     17338 TIP3     3006     TIP3     H2       HT       0.417000       1.00800           0
     17339 TIP3     3007     TIP3     OH2      OT      -0.834000       15.9994           0
     17340 TIP3     3007     TIP3     H1       HT       0.417000       1.00800           0
     17341 TIP3     3007     TIP3     H2       HT       0.417000       1.00800           0
     17342 TIP3     3008     TIP3     OH2      OT      -0.834000       15.9994           0
     17343 TIP3     3008     TIP3     H1       HT       0.417000       1.00800           0
     17344 TIP3     3008     TIP3     H2       HT       0.417000       1.00800           0
     17345 TIP3     3009     TIP3     OH2      OT      -0.834000       15.9994           0
     17346 TIP3     3009     TIP3     H1       HT       0.417000       1.00800           0
     17347 TIP3     3009     TIP3     H2       HT       0.417000       1.00800           0
     17348 TIP3     3010     TIP3     OH2      OT      -0.834000       15.9994           0
     17349 TIP3     3010     TIP3     H1       HT       0.417000       1.00800           0
     17350 TIP3     3010     TIP3     H2       HT       0.417000       1.00800           0
     17351 TIP3     3011     TIP3     OH2      OT      -0.834000       15.9994           0
     17352 TIP3     3011     TIP3     H1       HT       0.417000       1.00800           0
     17353 TIP3     3011     TIP3     H2       HT       0.417000       1.00800           0
     17354 TIP3     3012     TIP3     OH2      OT      -0.834000       15.9994           0
     17355 TIP3     3012     TIP3     H1       HT       0.417000       1.00800           0
     17356 TIP3     3012     TIP3     H2       HT       0.417000       1.00800           0
     17357 TIP3     3013     TIP3     OH2      OT      -0.834000       15.9994           0
     17358 TIP3     3013     TIP3     H1       HT       0.417000       1.00800           0
     17359 TIP3     3013     TIP3     H2       HT       0.417000       1.00800           0
     17360 TIP3     3014     TIP3     OH2      OT      -0.834000       15.9994           0
     17361 TIP3     3014     TIP3     H1       HT       0.417000       1.00800           0
     17362 TIP3     3014     TIP3     H2       HT       0.417000       1.00800           0
     17363 TIP3     3015     TIP3     OH2      OT      -0.834000       15.9994           0
     17364 TIP3     3015     TIP3     H1       HT       0.417000       1.00800           0
     17365 TIP3     3015     TIP3     H2       HT       0.417000       1.00800           0
     17366 TIP3     3016     TIP3     OH2      OT      -0.834000       15.9994           0
     17367 TIP3     3016     TIP3     H1       HT       0.417000       1.00800           0
     17368 TIP3     3016     TIP3     H2       HT       0.417000       1.00800           0
     17369 TIP3     3017     TIP3     OH2      OT      -0.834000       15.9994           0
     17370 TIP3     3017     TIP3     H1       HT       0.417000       1.00800           0
     17371 TIP3     3017     TIP3     H2       HT       0.417000       1.00800           0
     17372 TIP3     3018     TIP3     OH2      OT      -0.834000       15.9994           0
     17373 TIP3     3018     TIP3     H1       HT       0.417000       1.00800           0
     17374 TIP3     3018     TIP3     H2       HT       0.417000       1.00800           0
     17375 TIP3     3019     TIP3     OH2      OT      -0.834000       15.9994           0
     17376 TIP3     3019     TIP3     H1       HT       0.417000       1.00800           0
     17377 TIP3     3019     TIP3     H2       HT       0.417000       1.00800           0
     17378 TIP3     3020     TIP3     OH2      OT      -0.834000       15.9994           0
     17379 TIP3     3020     TIP3     H1       HT       0.417000       1.00800           0
     17380 TIP3     3020     TIP3     H2       HT       0.417000       1.00800           0
     17381 TIP3     3021     TIP3     OH2      OT      -0.834000       15.9994           0
     17382 TIP3     3021     TIP3     H1       HT       0.417000       1.00800           0
     17383 TIP3     3021     TIP3     H2       HT       0.417000       1.00800           0
     17384 TIP3     3022     TIP3     OH2      OT      -0.834000       15.9994           0
     17385 TIP3     3022     TIP3     H1       HT       0.417000       1.00800           0
     17386 TIP3     3022     TIP3     H2       HT       0.417000       1.00800           0
     17387 TIP3     3023     TIP3     OH2      OT      -0.834000       15.9994           0
     17388 TIP3     3023     TIP3     H1       HT       0.417000       1.00800           0
     17389 TIP3     3023     TIP3     H2       HT       0.417000       1.00800           0
     17390 TIP3     3024     TIP3     OH2      OT      -0.834000       15.9994           0
     17391 TIP3     3024     TIP3     H1       HT       0.417000       1.00800           0
     17392 TIP3     3024     TIP3     H2       HT       0.417000       1.00800           0
     17393 TIP3     3025     TIP3     OH2      OT      -0.834000       15.9994           0
     17394 TIP3     3025     TIP3     H1       HT       0.417000       1.00800           0
     17395 TIP3     3025     TIP3     H2       HT       0.417000       1.00800           0
     17396 TIP3     3026     TIP3     OH2      OT      -0.834000       15.9994           0
     17397 TIP3     3026     TIP3     H1       HT       0.417000       1.00800           0
     17398 TIP3     3026     TIP3     H2       HT       0.417000       1.00800           0
     17399 TIP3     3027     TIP3     OH2      OT      -0.834000       15.9994           0
     17400 TIP3     3027     TIP3     H1       HT       0.417000       1.00800           0
     17401 TIP3     3027     TIP3     H2       HT       0.417000       1.00800           0
     17402 TIP3     3028     TIP3     OH2      OT      -0.834000       15.9994           0
     17403 TIP3     3028     TIP3     H1       HT       0.417000       1.00800           0
     17404 TIP3     3028     TIP3     H2       HT       0.417000       1.00800           0
     17405 TIP3     3029     TIP3     OH2      OT      -0.834000       15.9994           0
     17406 TIP3     3029     TIP3     H1       HT       0.417000       1.00800           0
     17407 TIP3     3029     TIP3     H2       HT       0.417000       1.00800           0
     17408 TIP3     3030     TIP3     OH2      OT      -0.834000       15.9994           0
     17409 TIP3     3030     TIP3     H1       HT       0.417000       1.00800           0
     17410 TIP3     3030     TIP3     H2       HT       0.417000       1.00800           0
     17411 TIP3     3031     TIP3     OH2      OT      -0.834000       15.9994           0
     17412 TIP3     3031     TIP3     H1       HT       0.417000       1.00800           0
     17413 TIP3     3031     TIP3     H2       HT       0.417000       1.00800           0
     17414 TIP3     3032     TIP3     OH2      OT      -0.834000       15.9994           0
     17415 TIP3     3032     TIP3     H1       HT       0.417000       1.00800           0
     17416 TIP3     3032     TIP3     H2       HT       0.417000       1.00800           0
     17417 TIP3     3033     TIP3     OH2      OT      -0.834000       15.9994           0
     17418 TIP3     3033     TIP3     H1       HT       0.417000       1.00800           0
     17419 TIP3     3033     TIP3     H2       HT       0.417000       1.00800           0
     17420 TIP3     3034     TIP3     OH2      OT      -0.834000       15.9994           0
     17421 TIP3     3034     TIP3     H1       HT       0.417000       1.00800           0
     17422 TIP3     3034     TIP3     H2       HT       0.417000       1.00800           0
     17423 TIP3     3035     TIP3     OH2      OT      -0.834000       15.9994           0
     17424 TIP3     3035     TIP3     H1       HT       0.417000       1.00800           0
     17425 TIP3     3035     TIP3     H2       HT       0.417000       1.00800           0
     17426 TIP3     3036     TIP3     OH2      OT      -0.834000       15.9994           0
     17427 TIP3     3036     TIP3     H1       HT       0.417000       1.00800           0
     17428 TIP3     3036     TIP3     H2       HT       0.417000       1.00800           0
     17429 TIP3     3037     TIP3     OH2      OT      -0.834000       15.9994           0
     17430 TIP3     3037     TIP3     H1       HT       0.417000       1.00800           0
     17431 TIP3     3037     TIP3     H2       HT       0.417000       1.00800           0
     17432 TIP3     3038     TIP3     OH2      OT      -0.834000       15.9994           0
     17433 TIP3     3038     TIP3     H1       HT       0.417000       1.00800           0
     17434 TIP3     3038     TIP3     H2       HT       0.417000       1.00800           0
     17435 TIP3     3039     TIP3     OH2      OT      -0.834000       15.9994           0
     17436 TIP3     3039     TIP3     H1       HT       0.417000       1.00800           0
     17437 TIP3     3039     TIP3     H2       HT       0.417000       1.00800           0
     17438 TIP3     3040     TIP3     OH2      OT      -0.834000       15.9994           0
     17439 TIP3     3040     TIP3     H1       HT       0.417000       1.00800           0
     17440 TIP3     3040     TIP3     H2       HT       0.417000       1.00800           0
     17441 TIP3     3041     TIP3     OH2      OT      -0.834000       15.9994           0
     17442 TIP3     3041     TIP3     H1       HT       0.417000       1.00800           0
     17443 TIP3     3041     TIP3     H2       HT       0.417000       1.00800           0
     17444 TIP3     3042     TIP3     OH2      OT      -0.834000       15.9994           0
     17445 TIP3     3042     TIP3     H1       HT       0.417000       1.00800           0
     17446 TIP3     3042     TIP3     H2       HT       0.417000       1.00800           0
     17447 TIP3     3043     TIP3     OH2      OT      -0.834000       15.9994           0
     17448 TIP3     3043     TIP3     H1       HT       0.417000       1.00800           0
     17449 TIP3     3043     TIP3     H2       HT       0.417000       1.00800           0
     17450 TIP3     3044     TIP3     OH2      OT      -0.834000       15.9994           0
     17451 TIP3     3044     TIP3     H1       HT       0.417000       1.00800           0
     17452 TIP3     3044     TIP3     H2       HT       0.417000       1.00800           0
     17453 TIP3     3045     TIP3     OH2      OT      -0.834000       15.9994           0
     17454 TIP3     3045     TIP3     H1       HT       0.417000       1.00800           0
     17455 TIP3     3045     TIP3     H2       HT       0.417000       1.00800           0
     17456 TIP3     3046     TIP3     OH2      OT      -0.834000       15.9994           0
     17457 TIP3     3046     TIP3     H1       HT       0.417000       1.00800           0
     17458 TIP3     3046     TIP3     H2       HT       0.417000       1.00800           0
     17459 TIP3     3047     TIP3     OH2      OT      -0.834000       15.9994           0
     17460 TIP3     3047     TIP3     H1       HT       0.417000       1.00800           0
     17461 TIP3     3047     TIP3     H2       HT       0.417000       1.00800           0
     17462 TIP3     3048     TIP3     OH2      OT      -0.834000       15.9994           0
     17463 TIP3     3048     TIP3     H1       HT       0.417000       1.00800           0
     17464 TIP3     3048     TIP3     H2       HT       0.417000       1.00800           0
     17465 TIP3     3049     TIP3     OH2      OT      -0.834000       15.9994           0
     17466 TIP3     3049     TIP3     H1       HT       0.417000       1.00800           0
     17467 TIP3     3049     TIP3     H2       HT       0.417000       1.00800           0
     17468 TIP3     3050     TIP3     OH2      OT      -0.834000       15.9994           0
     17469 TIP3     3050     TIP3     H1       HT       0.417000       1.00800           0
     17470 TIP3     3050     TIP3     H2       HT       0.417000       1.00800           0
     17471 TIP3     3051     TIP3     OH2      OT      -0.834000       15.9994           0
     17472 TIP3     3051     TIP3     H1       HT       0.417000       1.00800           0
     17473 TIP3     3051     TIP3     H2       HT       0.417000       1.00800           0
     17474 TIP3     3052     TIP3     OH2      OT      -0.834000       15.9994           0
     17475 TIP3     3052     TIP3     H1       HT       0.417000       1.00800           0
     17476 TIP3     3052     TIP3     H2       HT       0.417000       1.00800           0
     17477 TIP3     3053     TIP3     OH2      OT      -0.834000       15.9994           0
     17478 TIP3     3053     TIP3     H1       HT       0.417000       1.00800           0
     17479 TIP3     3053     TIP3     H2       HT       0.417000       1.00800           0
     17480 TIP3     3054     TIP3     OH2      OT      -0.834000       15.9994           0
     17481 TIP3     3054     TIP3     H1       HT       0.417000       1.00800           0
     17482 TIP3     3054     TIP3     H2       HT       0.417000       1.00800           0
     17483 TIP3     3055     TIP3     OH2      OT      -0.834000       15.9994           0
     17484 TIP3     3055     TIP3     H1       HT       0.417000       1.00800           0
     17485 TIP3     3055     TIP3     H2       HT       0.417000       1.00800           0
     17486 TIP3     3056     TIP3     OH2      OT      -0.834000       15.9994           0
     17487 TIP3     3056     TIP3     H1       HT       0.417000       1.00800           0
     17488 TIP3     3056     TIP3     H2       HT       0.417000       1.00800           0
     17489 TIP3     3057     TIP3     OH2      OT      -0.834000       15.9994           0
     17490 TIP3     3057     TIP3     H1       HT       0.417000       1.00800           0
     17491 TIP3     3057     TIP3     H2       HT       0.417000       1.00800           0
     17492 TIP3     3058     TIP3     OH2      OT      -0.834000       15.9994           0
     17493 TIP3     3058     TIP3     H1       HT       0.417000       1.00800           0
     17494 TIP3     3058     TIP3     H2       HT       0.417000       1.00800           0
     17495 TIP3     3059     TIP3     OH2      OT      -0.834000       15.9994           0
     17496 TIP3     3059     TIP3     H1       HT       0.417000       1.00800           0
     17497 TIP3     3059     TIP3     H2       HT       0.417000       1.00800           0
     17498 TIP3     3060     TIP3     OH2      OT      -0.834000       15.9994           0
     17499 TIP3     3060     TIP3     H1       HT       0.417000       1.00800           0
     17500 TIP3     3060     TIP3     H2       HT       0.417000       1.00800           0
     17501 TIP3     3061     TIP3     OH2      OT      -0.834000       15.9994           0
     17502 TIP3     3061     TIP3     H1       HT       0.417000       1.00800           0
     17503 TIP3     3061     TIP3     H2       HT       0.417000       1.00800           0
     17504 TIP3     3062     TIP3     OH2      OT      -0.834000       15.9994           0
     17505 TIP3     3062     TIP3     H1       HT       0.417000       1.00800           0
     17506 TIP3     3062     TIP3     H2       HT       0.417000       1.00800           0
     17507 TIP3     3063     TIP3     OH2      OT      -0.834000       15.9994           0
     17508 TIP3     3063     TIP3     H1       HT       0.417000       1.00800           0
     17509 TIP3     3063     TIP3     H2       HT       0.417000       1.00800           0
     17510 TIP3     3064     TIP3     OH2      OT      -0.834000       15.9994           0
     17511 TIP3     3064     TIP3     H1       HT       0.417000       1.00800           0
     17512 TIP3     3064     TIP3     H2       HT       0.417000       1.00800           0
     17513 TIP3     3065     TIP3     OH2      OT      -0.834000       15.9994           0
     17514 TIP3     3065     TIP3     H1       HT       0.417000       1.00800           0
     17515 TIP3     3065     TIP3     H2       HT       0.417000       1.00800           0
     17516 TIP3     3066     TIP3     OH2      OT      -0.834000       15.9994           0
     17517 TIP3     3066     TIP3     H1       HT       0.417000       1.00800           0
     17518 TIP3     3066     TIP3     H2       HT       0.417000       1.00800           0
     17519 TIP3     3067     TIP3     OH2      OT      -0.834000       15.9994           0
     17520 TIP3     3067     TIP3     H1       HT       0.417000       1.00800           0
     17521 TIP3     3067     TIP3     H2       HT       0.417000       1.00800           0
     17522 TIP3     3068     TIP3     OH2      OT      -0.834000       15.9994           0
     17523 TIP3     3068     TIP3     H1       HT       0.417000       1.00800           0
     17524 TIP3     3068     TIP3     H2       HT       0.417000       1.00800           0
     17525 TIP3     3069     TIP3     OH2      OT      -0.834000       15.9994           0
     17526 TIP3     3069     TIP3     H1       HT       0.417000       1.00800           0
     17527 TIP3     3069     TIP3     H2       HT       0.417000       1.00800           0
     17528 TIP3     3070     TIP3     OH2      OT      -0.834000       15.9994           0
     17529 TIP3     3070     TIP3     H1       HT       0.417000       1.00800           0
     17530 TIP3     3070     TIP3     H2       HT       0.417000       1.00800           0
     17531 TIP3     3071     TIP3     OH2      OT      -0.834000       15.9994           0
     17532 TIP3     3071     TIP3     H1       HT       0.417000       1.00800           0
     17533 TIP3     3071     TIP3     H2       HT       0.417000       1.00800           0
     17534 TIP3     3072     TIP3     OH2      OT      -0.834000       15.9994           0
     17535 TIP3     3072     TIP3     H1       HT       0.417000       1.00800           0
     17536 TIP3     3072     TIP3     H2       HT       0.417000       1.00800           0
     17537 TIP3     3073     TIP3     OH2      OT      -0.834000       15.9994           0
     17538 TIP3     3073     TIP3     H1       HT       0.417000       1.00800           0
     17539 TIP3     3073     TIP3     H2       HT       0.417000       1.00800           0
     17540 TIP3     3074     TIP3     OH2      OT      -0.834000       15.9994           0
     17541 TIP3     3074     TIP3     H1       HT       0.417000       1.00800           0
     17542 TIP3     3074     TIP3     H2       HT       0.417000       1.00800           0
     17543 TIP3     3075     TIP3     OH2      OT      -0.834000       15.9994           0
     17544 TIP3     3075     TIP3     H1       HT       0.417000       1.00800           0
     17545 TIP3     3075     TIP3     H2       HT       0.417000       1.00800           0
     17546 TIP3     3076     TIP3     OH2      OT      -0.834000       15.9994           0
     17547 TIP3     3076     TIP3     H1       HT       0.417000       1.00800           0
     17548 TIP3     3076     TIP3     H2       HT       0.417000       1.00800           0
     17549 TIP3     3077     TIP3     OH2      OT      -0.834000       15.9994           0
     17550 TIP3     3077     TIP3     H1       HT       0.417000       1.00800           0
     17551 TIP3     3077     TIP3     H2       HT       0.417000       1.00800           0
     17552 TIP3     3078     TIP3     OH2      OT      -0.834000       15.9994           0
     17553 TIP3     3078     TIP3     H1       HT       0.417000       1.00800           0
     17554 TIP3     3078     TIP3     H2       HT       0.417000       1.00800           0
     17555 TIP3     3079     TIP3     OH2      OT      -0.834000       15.9994           0
     17556 TIP3     3079     TIP3     H1       HT       0.417000       1.00800           0
     17557 TIP3     3079     TIP3     H2       HT       0.417000       1.00800           0
     17558 TIP3     3080     TIP3     OH2      OT      -0.834000       15.9994           0
     17559 TIP3     3080     TIP3     H1       HT       0.417000       1.00800           0
     17560 TIP3     3080     TIP3     H2       HT       0.417000       1.00800           0
     17561 TIP3     3081     TIP3     OH2      OT      -0.834000       15.9994           0
     17562 TIP3     3081     TIP3     H1       HT       0.417000       1.00800           0
     17563 TIP3     3081     TIP3     H2       HT       0.417000       1.00800           0
     17564 TIP3     3082     TIP3     OH2      OT      -0.834000       15.9994           0
     17565 TIP3     3082     TIP3     H1       HT       0.417000       1.00800           0
     17566 TIP3     3082     TIP3     H2       HT       0.417000       1.00800           0
     17567 TIP3     3083     TIP3     OH2      OT      -0.834000       15.9994           0
     17568 TIP3     3083     TIP3     H1       HT       0.417000       1.00800           0
     17569 TIP3     3083     TIP3     H2       HT       0.417000       1.00800           0
     17570 TIP3     3084     TIP3     OH2      OT      -0.834000       15.9994           0
     17571 TIP3     3084     TIP3     H1       HT       0.417000       1.00800           0
     17572 TIP3     3084     TIP3     H2       HT       0.417000       1.00800           0
     17573 TIP3     3085     TIP3     OH2      OT      -0.834000       15.9994           0
     17574 TIP3     3085     TIP3     H1       HT       0.417000       1.00800           0
     17575 TIP3     3085     TIP3     H2       HT       0.417000       1.00800           0
     17576 TIP3     3086     TIP3     OH2      OT      -0.834000       15.9994           0
     17577 TIP3     3086     TIP3     H1       HT       0.417000       1.00800           0
     17578 TIP3     3086     TIP3     H2       HT       0.417000       1.00800           0
     17579 TIP3     3087     TIP3     OH2      OT      -0.834000       15.9994           0
     17580 TIP3     3087     TIP3     H1       HT       0.417000       1.00800           0
     17581 TIP3     3087     TIP3     H2       HT       0.417000       1.00800           0
     17582 TIP3     3088     TIP3     OH2      OT      -0.834000       15.9994           0
     17583 TIP3     3088     TIP3     H1       HT       0.417000       1.00800           0
     17584 TIP3     3088     TIP3     H2       HT       0.417000       1.00800           0
     17585 TIP3     3089     TIP3     OH2      OT      -0.834000       15.9994           0
     17586 TIP3     3089     TIP3     H1       HT       0.417000       1.00800           0
     17587 TIP3     3089     TIP3     H2       HT       0.417000       1.00800           0
     17588 TIP3     3090     TIP3     OH2      OT      -0.834000       15.9994           0
     17589 TIP3     3090     TIP3     H1       HT       0.417000       1.00800           0
     17590 TIP3     3090     TIP3     H2       HT       0.417000       1.00800           0
     17591 TIP3     3091     TIP3     OH2      OT      -0.834000       15.9994           0
     17592 TIP3     3091     TIP3     H1       HT       0.417000       1.00800           0
     17593 TIP3     3091     TIP3     H2       HT       0.417000       1.00800           0
     17594 TIP3     3092     TIP3     OH2      OT      -0.834000       15.9994           0
     17595 TIP3     3092     TIP3     H1       HT       0.417000       1.00800           0
     17596 TIP3     3092     TIP3     H2       HT       0.417000       1.00800           0
     17597 TIP3     3093     TIP3     OH2      OT      -0.834000       15.9994           0
     17598 TIP3     3093     TIP3     H1       HT       0.417000       1.00800           0
     17599 TIP3     3093     TIP3     H2       HT       0.417000       1.00800           0
     17600 TIP3     3094     TIP3     OH2      OT      -0.834000       15.9994           0
     17601 TIP3     3094     TIP3     H1       HT       0.417000       1.00800           0
     17602 TIP3     3094     TIP3     H2       HT       0.417000       1.00800           0
     17603 TIP3     3095     TIP3     OH2      OT      -0.834000       15.9994           0
     17604 TIP3     3095     TIP3     H1       HT       0.417000       1.00800           0
     17605 TIP3     3095     TIP3     H2       HT       0.417000       1.00800           0
     17606 TIP3     3096     TIP3     OH2      OT      -0.834000       15.9994           0
     17607 TIP3     3096     TIP3     H1       HT       0.417000       1.00800           0
     17608 TIP3     3096     TIP3     H2       HT       0.417000       1.00800           0
     17609 TIP3     3097     TIP3     OH2      OT      -0.834000       15.9994           0
     17610 TIP3     3097     TIP3     H1       HT       0.417000       1.00800           0
     17611 TIP3     3097     TIP3     H2       HT       0.417000       1.00800           0
     17612 TIP3     3098     TIP3     OH2      OT      -0.834000       15.9994           0
     17613 TIP3     3098     TIP3     H1       HT       0.417000       1.00800           0
     17614 TIP3     3098     TIP3     H2       HT       0.417000       1.00800           0
     17615 TIP3     3099     TIP3     OH2      OT      -0.834000       15.9994           0
     17616 TIP3     3099     TIP3     H1       HT       0.417000       1.00800           0
     17617 TIP3     3099     TIP3     H2       HT       0.417000       1.00800           0
     17618 TIP3     3100     TIP3     OH2      OT      -0.834000       15.9994           0
     17619 TIP3     3100     TIP3     H1       HT       0.417000       1.00800           0
     17620 TIP3     3100     TIP3     H2       HT       0.417000       1.00800           0
     17621 TIP3     3101     TIP3     OH2      OT      -0.834000       15.9994           0
     17622 TIP3     3101     TIP3     H1       HT       0.417000       1.00800           0
     17623 TIP3     3101     TIP3     H2       HT       0.417000       1.00800           0
     17624 TIP3     3102     TIP3     OH2      OT      -0.834000       15.9994           0
     17625 TIP3     3102     TIP3     H1       HT       0.417000       1.00800           0
     17626 TIP3     3102     TIP3     H2       HT       0.417000       1.00800           0
     17627 TIP3     3103     TIP3     OH2      OT      -0.834000       15.9994           0
     17628 TIP3     3103     TIP3     H1       HT       0.417000       1.00800           0
     17629 TIP3     3103     TIP3     H2       HT       0.417000       1.00800           0
     17630 TIP3     3104     TIP3     OH2      OT      -0.834000       15.9994           0
     17631 TIP3     3104     TIP3     H1       HT       0.417000       1.00800           0
     17632 TIP3     3104     TIP3     H2       HT       0.417000       1.00800           0
     17633 TIP3     3105     TIP3     OH2      OT      -0.834000       15.9994           0
     17634 TIP3     3105     TIP3     H1       HT       0.417000       1.00800           0
     17635 TIP3     3105     TIP3     H2       HT       0.417000       1.00800           0
     17636 TIP3     3106     TIP3     OH2      OT      -0.834000       15.9994           0
     17637 TIP3     3106     TIP3     H1       HT       0.417000       1.00800           0
     17638 TIP3     3106     TIP3     H2       HT       0.417000       1.00800           0
     17639 TIP3     3107     TIP3     OH2      OT      -0.834000       15.9994           0
     17640 TIP3     3107     TIP3     H1       HT       0.417000       1.00800           0
     17641 TIP3     3107     TIP3     H2       HT       0.417000       1.00800           0
     17642 TIP3     3108     TIP3     OH2      OT      -0.834000       15.9994           0
     17643 TIP3     3108     TIP3     H1       HT       0.417000       1.00800           0
     17644 TIP3     3108     TIP3     H2       HT       0.417000       1.00800           0
     17645 TIP3     3109     TIP3     OH2      OT      -0.834000       15.9994           0
     17646 TIP3     3109     TIP3     H1       HT       0.417000       1.00800           0
     17647 TIP3     3109     TIP3     H2       HT       0.417000       1.00800           0
     17648 TIP3     3110     TIP3     OH2      OT      -0.834000       15.9994           0
     17649 TIP3     3110     TIP3     H1       HT       0.417000       1.00800           0
     17650 TIP3     3110     TIP3     H2       HT       0.417000       1.00800           0
     17651 TIP3     3111     TIP3     OH2      OT      -0.834000       15.9994           0
     17652 TIP3     3111     TIP3     H1       HT       0.417000       1.00800           0
     17653 TIP3     3111     TIP3     H2       HT       0.417000       1.00800           0
     17654 TIP3     3112     TIP3     OH2      OT      -0.834000       15.9994           0
     17655 TIP3     3112     TIP3     H1       HT       0.417000       1.00800           0
     17656 TIP3     3112     TIP3     H2       HT       0.417000       1.00800           0
     17657 TIP3     3113     TIP3     OH2      OT      -0.834000       15.9994           0
     17658 TIP3     3113     TIP3     H1       HT       0.417000       1.00800           0
     17659 TIP3     3113     TIP3     H2       HT       0.417000       1.00800           0
     17660 TIP3     3114     TIP3     OH2      OT      -0.834000       15.9994           0
     17661 TIP3     3114     TIP3     H1       HT       0.417000       1.00800           0
     17662 TIP3     3114     TIP3     H2       HT       0.417000       1.00800           0
     17663 TIP3     3115     TIP3     OH2      OT      -0.834000       15.9994           0
     17664 TIP3     3115     TIP3     H1       HT       0.417000       1.00800           0
     17665 TIP3     3115     TIP3     H2       HT       0.417000       1.00800           0
     17666 TIP3     3116     TIP3     OH2      OT      -0.834000       15.9994           0
     17667 TIP3     3116     TIP3     H1       HT       0.417000       1.00800           0
     17668 TIP3     3116     TIP3     H2       HT       0.417000       1.00800           0
     17669 TIP3     3117     TIP3     OH2      OT      -0.834000       15.9994           0
     17670 TIP3     3117     TIP3     H1       HT       0.417000       1.00800           0
     17671 TIP3     3117     TIP3     H2       HT       0.417000       1.00800           0
     17672 TIP3     3118     TIP3     OH2      OT      -0.834000       15.9994           0
     17673 TIP3     3118     TIP3     H1       HT       0.417000       1.00800           0
     17674 TIP3     3118     TIP3     H2       HT       0.417000       1.00800           0
     17675 TIP3     3119     TIP3     OH2      OT      -0.834000       15.9994           0
     17676 TIP3     3119     TIP3     H1       HT       0.417000       1.00800           0
     17677 TIP3     3119     TIP3     H2       HT       0.417000       1.00800           0
     17678 TIP3     3120     TIP3     OH2      OT      -0.834000       15.9994           0
     17679 TIP3     3120     TIP3     H1       HT       0.417000       1.00800           0
     17680 TIP3     3120     TIP3     H2       HT       0.417000       1.00800           0
     17681 TIP3     3121     TIP3     OH2      OT      -0.834000       15.9994           0
     17682 TIP3     3121     TIP3     H1       HT       0.417000       1.00800           0
     17683 TIP3     3121     TIP3     H2       HT       0.417000       1.00800           0
     17684 TIP3     3122     TIP3     OH2      OT      -0.834000       15.9994           0
     17685 TIP3     3122     TIP3     H1       HT       0.417000       1.00800           0
     17686 TIP3     3122     TIP3     H2       HT       0.417000       1.00800           0
     17687 TIP3     3123     TIP3     OH2      OT      -0.834000       15.9994           0
     17688 TIP3     3123     TIP3     H1       HT       0.417000       1.00800           0
     17689 TIP3     3123     TIP3     H2       HT       0.417000       1.00800           0
     17690 TIP3     3124     TIP3     OH2      OT      -0.834000       15.9994           0
     17691 TIP3     3124     TIP3     H1       HT       0.417000       1.00800           0
     17692 TIP3     3124     TIP3     H2       HT       0.417000       1.00800           0
     17693 TIP3     3125     TIP3     OH2      OT      -0.834000       15.9994           0
     17694 TIP3     3125     TIP3     H1       HT       0.417000       1.00800           0
     17695 TIP3     3125     TIP3     H2       HT       0.417000       1.00800           0
     17696 TIP3     3126     TIP3     OH2      OT      -0.834000       15.9994           0
     17697 TIP3     3126     TIP3     H1       HT       0.417000       1.00800           0
     17698 TIP3     3126     TIP3     H2       HT       0.417000       1.00800           0
     17699 TIP3     3127     TIP3     OH2      OT      -0.834000       15.9994           0
     17700 TIP3     3127     TIP3     H1       HT       0.417000       1.00800           0
     17701 TIP3     3127     TIP3     H2       HT       0.417000       1.00800           0
     17702 TIP3     3128     TIP3     OH2      OT      -0.834000       15.9994           0
     17703 TIP3     3128     TIP3     H1       HT       0.417000       1.00800           0
     17704 TIP3     3128     TIP3     H2       HT       0.417000       1.00800           0
     17705 TIP3     3129     TIP3     OH2      OT      -0.834000       15.9994           0
     17706 TIP3     3129     TIP3     H1       HT       0.417000       1.00800           0
     17707 TIP3     3129     TIP3     H2       HT       0.417000       1.00800           0
     17708 TIP3     3130     TIP3     OH2      OT      -0.834000       15.9994           0
     17709 TIP3     3130     TIP3     H1       HT       0.417000       1.00800           0
     17710 TIP3     3130     TIP3     H2       HT       0.417000       1.00800           0
     17711 TIP3     3131     TIP3     OH2      OT      -0.834000       15.9994           0
     17712 TIP3     3131     TIP3     H1       HT       0.417000       1.00800           0
     17713 TIP3     3131     TIP3     H2       HT       0.417000       1.00800           0
     17714 TIP3     3132     TIP3     OH2      OT      -0.834000       15.9994           0
     17715 TIP3     3132     TIP3     H1       HT       0.417000       1.00800           0
     17716 TIP3     3132     TIP3     H2       HT       0.417000       1.00800           0
     17717 TIP3     3133     TIP3     OH2      OT      -0.834000       15.9994           0
     17718 TIP3     3133     TIP3     H1       HT       0.417000       1.00800           0
     17719 TIP3     3133     TIP3     H2       HT       0.417000       1.00800           0
     17720 TIP3     3134     TIP3     OH2      OT      -0.834000       15.9994           0
     17721 TIP3     3134     TIP3     H1       HT       0.417000       1.00800           0
     17722 TIP3     3134     TIP3     H2       HT       0.417000       1.00800           0
     17723 TIP3     3135     TIP3     OH2      OT      -0.834000       15.9994           0
     17724 TIP3     3135     TIP3     H1       HT       0.417000       1.00800           0
     17725 TIP3     3135     TIP3     H2       HT       0.417000       1.00800           0
     17726 TIP3     3136     TIP3     OH2      OT      -0.834000       15.9994           0
     17727 TIP3     3136     TIP3     H1       HT       0.417000       1.00800           0
     17728 TIP3     3136     TIP3     H2       HT       0.417000       1.00800           0
     17729 TIP3     3137     TIP3     OH2      OT      -0.834000       15.9994           0
     17730 TIP3     3137     TIP3     H1       HT       0.417000       1.00800           0
     17731 TIP3     3137     TIP3     H2       HT       0.417000       1.00800           0
     17732 TIP3     3138     TIP3     OH2      OT      -0.834000       15.9994           0
     17733 TIP3     3138     TIP3     H1       HT       0.417000       1.00800           0
     17734 TIP3     3138     TIP3     H2       HT       0.417000       1.00800           0
     17735 TIP3     3139     TIP3     OH2      OT      -0.834000       15.9994           0
     17736 TIP3     3139     TIP3     H1       HT       0.417000       1.00800           0
     17737 TIP3     3139     TIP3     H2       HT       0.417000       1.00800           0
     17738 TIP3     3140     TIP3     OH2      OT      -0.834000       15.9994           0
     17739 TIP3     3140     TIP3     H1       HT       0.417000       1.00800           0
     17740 TIP3     3140     TIP3     H2       HT       0.417000       1.00800           0
     17741 TIP3     3141     TIP3     OH2      OT      -0.834000       15.9994           0
     17742 TIP3     3141     TIP3     H1       HT       0.417000       1.00800           0
     17743 TIP3     3141     TIP3     H2       HT       0.417000       1.00800           0
     17744 TIP3     3142     TIP3     OH2      OT      -0.834000       15.9994           0
     17745 TIP3     3142     TIP3     H1       HT       0.417000       1.00800           0
     17746 TIP3     3142     TIP3     H2       HT       0.417000       1.00800           0
     17747 TIP3     3143     TIP3     OH2      OT      -0.834000       15.9994           0
     17748 TIP3     3143     TIP3     H1       HT       0.417000       1.00800           0
     17749 TIP3     3143     TIP3     H2       HT       0.417000       1.00800           0
     17750 TIP3     3144     TIP3     OH2      OT      -0.834000       15.9994           0
     17751 TIP3     3144     TIP3     H1       HT       0.417000       1.00800           0
     17752 TIP3     3144     TIP3     H2       HT       0.417000       1.00800           0
     17753 TIP3     3145     TIP3     OH2      OT      -0.834000       15.9994           0
     17754 TIP3     3145     TIP3     H1       HT       0.417000       1.00800           0
     17755 TIP3     3145     TIP3     H2       HT       0.417000       1.00800           0
     17756 TIP3     3146     TIP3     OH2      OT      -0.834000       15.9994           0
     17757 TIP3     3146     TIP3     H1       HT       0.417000       1.00800           0
     17758 TIP3     3146     TIP3     H2       HT       0.417000       1.00800           0
     17759 TIP3     3147     TIP3     OH2      OT      -0.834000       15.9994           0
     17760 TIP3     3147     TIP3     H1       HT       0.417000       1.00800           0
     17761 TIP3     3147     TIP3     H2       HT       0.417000       1.00800           0
     17762 TIP3     3148     TIP3     OH2      OT      -0.834000       15.9994           0
     17763 TIP3     3148     TIP3     H1       HT       0.417000       1.00800           0
     17764 TIP3     3148     TIP3     H2       HT       0.417000       1.00800           0
     17765 TIP3     3149     TIP3     OH2      OT      -0.834000       15.9994           0
     17766 TIP3     3149     TIP3     H1       HT       0.417000       1.00800           0
     17767 TIP3     3149     TIP3     H2       HT       0.417000       1.00800           0
     17768 TIP3     3150     TIP3     OH2      OT      -0.834000       15.9994           0
     17769 TIP3     3150     TIP3     H1       HT       0.417000       1.00800           0
     17770 TIP3     3150     TIP3     H2       HT       0.417000       1.00800           0
     17771 TIP3     3151     TIP3     OH2      OT      -0.834000       15.9994           0
     17772 TIP3     3151     TIP3     H1       HT       0.417000       1.00800           0
     17773 TIP3     3151     TIP3     H2       HT       0.417000       1.00800           0
     17774 TIP3     3152     TIP3     OH2      OT      -0.834000       15.9994           0
     17775 TIP3     3152     TIP3     H1       HT       0.417000       1.00800           0
     17776 TIP3     3152     TIP3     H2       HT       0.417000       1.00800           0
     17777 TIP3     3153     TIP3     OH2      OT      -0.834000       15.9994           0
     17778 TIP3     3153     TIP3     H1       HT       0.417000       1.00800           0
     17779 TIP3     3153     TIP3     H2       HT       0.417000       1.00800           0
     17780 TIP3     3154     TIP3     OH2      OT      -0.834000       15.9994           0
     17781 TIP3     3154     TIP3     H1       HT       0.417000       1.00800           0
     17782 TIP3     3154     TIP3     H2       HT       0.417000       1.00800           0
     17783 TIP3     3155     TIP3     OH2      OT      -0.834000       15.9994           0
     17784 TIP3     3155     TIP3     H1       HT       0.417000       1.00800           0
     17785 TIP3     3155     TIP3     H2       HT       0.417000       1.00800           0
     17786 TIP3     3156     TIP3     OH2      OT      -0.834000       15.9994           0
     17787 TIP3     3156     TIP3     H1       HT       0.417000       1.00800           0
     17788 TIP3     3156     TIP3     H2       HT       0.417000       1.00800           0
     17789 TIP3     3157     TIP3     OH2      OT      -0.834000       15.9994           0
     17790 TIP3     3157     TIP3     H1       HT       0.417000       1.00800           0
     17791 TIP3     3157     TIP3     H2       HT       0.417000       1.00800           0
     17792 TIP3     3158     TIP3     OH2      OT      -0.834000       15.9994           0
     17793 TIP3     3158     TIP3     H1       HT       0.417000       1.00800           0
     17794 TIP3     3158     TIP3     H2       HT       0.417000       1.00800           0
     17795 TIP3     3159     TIP3     OH2      OT      -0.834000       15.9994           0
     17796 TIP3     3159     TIP3     H1       HT       0.417000       1.00800           0
     17797 TIP3     3159     TIP3     H2       HT       0.417000       1.00800           0
     17798 TIP3     3160     TIP3     OH2      OT      -0.834000       15.9994           0
     17799 TIP3     3160     TIP3     H1       HT       0.417000       1.00800           0
     17800 TIP3     3160     TIP3     H2       HT       0.417000       1.00800           0
     17801 TIP3     3161     TIP3     OH2      OT      -0.834000       15.9994           0
     17802 TIP3     3161     TIP3     H1       HT       0.417000       1.00800           0
     17803 TIP3     3161     TIP3     H2       HT       0.417000       1.00800           0
     17804 TIP3     3162     TIP3     OH2      OT      -0.834000       15.9994           0
     17805 TIP3     3162     TIP3     H1       HT       0.417000       1.00800           0
     17806 TIP3     3162     TIP3     H2       HT       0.417000       1.00800           0
     17807 TIP3     3163     TIP3     OH2      OT      -0.834000       15.9994           0
     17808 TIP3     3163     TIP3     H1       HT       0.417000       1.00800           0
     17809 TIP3     3163     TIP3     H2       HT       0.417000       1.00800           0
     17810 TIP3     3164     TIP3     OH2      OT      -0.834000       15.9994           0
     17811 TIP3     3164     TIP3     H1       HT       0.417000       1.00800           0
     17812 TIP3     3164     TIP3     H2       HT       0.417000       1.00800           0
     17813 TIP3     3165     TIP3     OH2      OT      -0.834000       15.9994           0
     17814 TIP3     3165     TIP3     H1       HT       0.417000       1.00800           0
     17815 TIP3     3165     TIP3     H2       HT       0.417000       1.00800           0
     17816 TIP3     3166     TIP3     OH2      OT      -0.834000       15.9994           0
     17817 TIP3     3166     TIP3     H1       HT       0.417000       1.00800           0
     17818 TIP3     3166     TIP3     H2       HT       0.417000       1.00800           0
     17819 TIP3     3167     TIP3     OH2      OT      -0.834000       15.9994           0
     17820 TIP3     3167     TIP3     H1       HT       0.417000       1.00800           0
     17821 TIP3     3167     TIP3     H2       HT       0.417000       1.00800           0
     17822 TIP3     3168     TIP3     OH2      OT      -0.834000       15.9994           0
     17823 TIP3     3168     TIP3     H1       HT       0.417000       1.00800           0
     17824 TIP3     3168     TIP3     H2       HT       0.417000       1.00800           0
     17825 TIP3     3169     TIP3     OH2      OT      -0.834000       15.9994           0
     17826 TIP3     3169     TIP3     H1       HT       0.417000       1.00800           0
     17827 TIP3     3169     TIP3     H2       HT       0.417000       1.00800           0
     17828 TIP3     3170     TIP3     OH2      OT      -0.834000       15.9994           0
     17829 TIP3     3170     TIP3     H1       HT       0.417000       1.00800           0
     17830 TIP3     3170     TIP3     H2       HT       0.417000       1.00800           0
     17831 TIP3     3171     TIP3     OH2      OT      -0.834000       15.9994           0
     17832 TIP3     3171     TIP3     H1       HT       0.417000       1.00800           0
     17833 TIP3     3171     TIP3     H2       HT       0.417000       1.00800           0
     17834 TIP3     3172     TIP3     OH2      OT      -0.834000       15.9994           0
     17835 TIP3     3172     TIP3     H1       HT       0.417000       1.00800           0
     17836 TIP3     3172     TIP3     H2       HT       0.417000       1.00800           0
     17837 TIP3     3173     TIP3     OH2      OT      -0.834000       15.9994           0
     17838 TIP3     3173     TIP3     H1       HT       0.417000       1.00800           0
     17839 TIP3     3173     TIP3     H2       HT       0.417000       1.00800           0
     17840 TIP3     3174     TIP3     OH2      OT      -0.834000       15.9994           0
     17841 TIP3     3174     TIP3     H1       HT       0.417000       1.00800           0
     17842 TIP3     3174     TIP3     H2       HT       0.417000       1.00800           0
     17843 TIP3     3175     TIP3     OH2      OT      -0.834000       15.9994           0
     17844 TIP3     3175     TIP3     H1       HT       0.417000       1.00800           0
     17845 TIP3     3175     TIP3     H2       HT       0.417000       1.00800           0
     17846 TIP3     3176     TIP3     OH2      OT      -0.834000       15.9994           0
     17847 TIP3     3176     TIP3     H1       HT       0.417000       1.00800           0
     17848 TIP3     3176     TIP3     H2       HT       0.417000       1.00800           0
     17849 TIP3     3177     TIP3     OH2      OT      -0.834000       15.9994           0
     17850 TIP3     3177     TIP3     H1       HT       0.417000       1.00800           0
     17851 TIP3     3177     TIP3     H2       HT       0.417000       1.00800           0
     17852 TIP3     3178     TIP3     OH2      OT      -0.834000       15.9994           0
     17853 TIP3     3178     TIP3     H1       HT       0.417000       1.00800           0
     17854 TIP3     3178     TIP3     H2       HT       0.417000       1.00800           0
     17855 TIP3     3179     TIP3     OH2      OT      -0.834000       15.9994           0
     17856 TIP3     3179     TIP3     H1       HT       0.417000       1.00800           0
     17857 TIP3     3179     TIP3     H2       HT       0.417000       1.00800           0
     17858 TIP3     3180     TIP3     OH2      OT      -0.834000       15.9994           0
     17859 TIP3     3180     TIP3     H1       HT       0.417000       1.00800           0
     17860 TIP3     3180     TIP3     H2       HT       0.417000       1.00800           0
     17861 TIP3     3181     TIP3     OH2      OT      -0.834000       15.9994           0
     17862 TIP3     3181     TIP3     H1       HT       0.417000       1.00800           0
     17863 TIP3     3181     TIP3     H2       HT       0.417000       1.00800           0
     17864 TIP3     3182     TIP3     OH2      OT      -0.834000       15.9994           0
     17865 TIP3     3182     TIP3     H1       HT       0.417000       1.00800           0
     17866 TIP3     3182     TIP3     H2       HT       0.417000       1.00800           0
     17867 TIP3     3183     TIP3     OH2      OT      -0.834000       15.9994           0
     17868 TIP3     3183     TIP3     H1       HT       0.417000       1.00800           0
     17869 TIP3     3183     TIP3     H2       HT       0.417000       1.00800           0
     17870 TIP3     3184     TIP3     OH2      OT      -0.834000       15.9994           0
     17871 TIP3     3184     TIP3     H1       HT       0.417000       1.00800           0
     17872 TIP3     3184     TIP3     H2       HT       0.417000       1.00800           0
     17873 TIP3     3185     TIP3     OH2      OT      -0.834000       15.9994           0
     17874 TIP3     3185     TIP3     H1       HT       0.417000       1.00800           0
     17875 TIP3     3185     TIP3     H2       HT       0.417000       1.00800           0
     17876 TIP3     3186     TIP3     OH2      OT      -0.834000       15.9994           0
     17877 TIP3     3186     TIP3     H1       HT       0.417000       1.00800           0
     17878 TIP3     3186     TIP3     H2       HT       0.417000       1.00800           0
     17879 TIP3     3187     TIP3     OH2      OT      -0.834000       15.9994           0
     17880 TIP3     3187     TIP3     H1       HT       0.417000       1.00800           0
     17881 TIP3     3187     TIP3     H2       HT       0.417000       1.00800           0
     17882 TIP3     3188     TIP3     OH2      OT      -0.834000       15.9994           0
     17883 TIP3     3188     TIP3     H1       HT       0.417000       1.00800           0
     17884 TIP3     3188     TIP3     H2       HT       0.417000       1.00800           0
     17885 TIP3     3189     TIP3     OH2      OT      -0.834000       15.9994           0
     17886 TIP3     3189     TIP3     H1       HT       0.417000       1.00800           0
     17887 TIP3     3189     TIP3     H2       HT       0.417000       1.00800           0
     17888 TIP3     3190     TIP3     OH2      OT      -0.834000       15.9994           0
     17889 TIP3     3190     TIP3     H1       HT       0.417000       1.00800           0
     17890 TIP3     3190     TIP3     H2       HT       0.417000       1.00800           0
     17891 TIP3     3191     TIP3     OH2      OT      -0.834000       15.9994           0
     17892 TIP3     3191     TIP3     H1       HT       0.417000       1.00800           0
     17893 TIP3     3191     TIP3     H2       HT       0.417000       1.00800           0
     17894 TIP3     3192     TIP3     OH2      OT      -0.834000       15.9994           0
     17895 TIP3     3192     TIP3     H1       HT       0.417000       1.00800           0
     17896 TIP3     3192     TIP3     H2       HT       0.417000       1.00800           0
     17897 TIP3     3193     TIP3     OH2      OT      -0.834000       15.9994           0
     17898 TIP3     3193     TIP3     H1       HT       0.417000       1.00800           0
     17899 TIP3     3193     TIP3     H2       HT       0.417000       1.00800           0
     17900 TIP3     3194     TIP3     OH2      OT      -0.834000       15.9994           0
     17901 TIP3     3194     TIP3     H1       HT       0.417000       1.00800           0
     17902 TIP3     3194     TIP3     H2       HT       0.417000       1.00800           0
     17903 TIP3     3195     TIP3     OH2      OT      -0.834000       15.9994           0
     17904 TIP3     3195     TIP3     H1       HT       0.417000       1.00800           0
     17905 TIP3     3195     TIP3     H2       HT       0.417000       1.00800           0
     17906 TIP3     3196     TIP3     OH2      OT      -0.834000       15.9994           0
     17907 TIP3     3196     TIP3     H1       HT       0.417000       1.00800           0
     17908 TIP3     3196     TIP3     H2       HT       0.417000       1.00800           0
     17909 TIP3     3197     TIP3     OH2      OT      -0.834000       15.9994           0
     17910 TIP3     3197     TIP3     H1       HT       0.417000       1.00800           0
     17911 TIP3     3197     TIP3     H2       HT       0.417000       1.00800           0
     17912 TIP3     3198     TIP3     OH2      OT      -0.834000       15.9994           0
     17913 TIP3     3198     TIP3     H1       HT       0.417000       1.00800           0
     17914 TIP3     3198     TIP3     H2       HT       0.417000       1.00800           0
     17915 TIP3     3199     TIP3     OH2      OT      -0.834000       15.9994           0
     17916 TIP3     3199     TIP3     H1       HT       0.417000       1.00800           0
     17917 TIP3     3199     TIP3     H2       HT       0.417000       1.00800           0
     17918 TIP3     3200     TIP3     OH2      OT      -0.834000       15.9994           0
     17919 TIP3     3200     TIP3     H1       HT       0.417000       1.00800           0
     17920 TIP3     3200     TIP3     H2       HT       0.417000       1.00800           0
     17921 TIP3     3201     TIP3     OH2      OT      -0.834000       15.9994           0
     17922 TIP3     3201     TIP3     H1       HT       0.417000       1.00800           0
     17923 TIP3     3201     TIP3     H2       HT       0.417000       1.00800           0
     17924 TIP3     3202     TIP3     OH2      OT      -0.834000       15.9994           0
     17925 TIP3     3202     TIP3     H1       HT       0.417000       1.00800           0
     17926 TIP3     3202     TIP3     H2       HT       0.417000       1.00800           0
     17927 TIP3     3203     TIP3     OH2      OT      -0.834000       15.9994           0
     17928 TIP3     3203     TIP3     H1       HT       0.417000       1.00800           0
     17929 TIP3     3203     TIP3     H2       HT       0.417000       1.00800           0
     17930 TIP3     3204     TIP3     OH2      OT      -0.834000       15.9994           0
     17931 TIP3     3204     TIP3     H1       HT       0.417000       1.00800           0
     17932 TIP3     3204     TIP3     H2       HT       0.417000       1.00800           0
     17933 TIP3     3205     TIP3     OH2      OT      -0.834000       15.9994           0
     17934 TIP3     3205     TIP3     H1       HT       0.417000       1.00800           0
     17935 TIP3     3205     TIP3     H2       HT       0.417000       1.00800           0
     17936 TIP3     3206     TIP3     OH2      OT      -0.834000       15.9994           0
     17937 TIP3     3206     TIP3     H1       HT       0.417000       1.00800           0
     17938 TIP3     3206     TIP3     H2       HT       0.417000       1.00800           0
     17939 TIP3     3207     TIP3     OH2      OT      -0.834000       15.9994           0
     17940 TIP3     3207     TIP3     H1       HT       0.417000       1.00800           0
     17941 TIP3     3207     TIP3     H2       HT       0.417000       1.00800           0
     17942 TIP3     3208     TIP3     OH2      OT      -0.834000       15.9994           0
     17943 TIP3     3208     TIP3     H1       HT       0.417000       1.00800           0
     17944 TIP3     3208     TIP3     H2       HT       0.417000       1.00800           0
     17945 TIP3     3209     TIP3     OH2      OT      -0.834000       15.9994           0
     17946 TIP3     3209     TIP3     H1       HT       0.417000       1.00800           0
     17947 TIP3     3209     TIP3     H2       HT       0.417000       1.00800           0
     17948 TIP3     3210     TIP3     OH2      OT      -0.834000       15.9994           0
     17949 TIP3     3210     TIP3     H1       HT       0.417000       1.00800           0
     17950 TIP3     3210     TIP3     H2       HT       0.417000       1.00800           0
     17951 TIP3     3211     TIP3     OH2      OT      -0.834000       15.9994           0
     17952 TIP3     3211     TIP3     H1       HT       0.417000       1.00800           0
     17953 TIP3     3211     TIP3     H2       HT       0.417000       1.00800           0
     17954 TIP3     3212     TIP3     OH2      OT      -0.834000       15.9994           0
     17955 TIP3     3212     TIP3     H1       HT       0.417000       1.00800           0
     17956 TIP3     3212     TIP3     H2       HT       0.417000       1.00800           0
     17957 TIP3     3213     TIP3     OH2      OT      -0.834000       15.9994           0
     17958 TIP3     3213     TIP3     H1       HT       0.417000       1.00800           0
     17959 TIP3     3213     TIP3     H2       HT       0.417000       1.00800           0
     17960 TIP3     3214     TIP3     OH2      OT      -0.834000       15.9994           0
     17961 TIP3     3214     TIP3     H1       HT       0.417000       1.00800           0
     17962 TIP3     3214     TIP3     H2       HT       0.417000       1.00800           0
     17963 TIP3     3215     TIP3     OH2      OT      -0.834000       15.9994           0
     17964 TIP3     3215     TIP3     H1       HT       0.417000       1.00800           0
     17965 TIP3     3215     TIP3     H2       HT       0.417000       1.00800           0
     17966 TIP3     3216     TIP3     OH2      OT      -0.834000       15.9994           0
     17967 TIP3     3216     TIP3     H1       HT       0.417000       1.00800           0
     17968 TIP3     3216     TIP3     H2       HT       0.417000       1.00800           0
     17969 TIP3     3217     TIP3     OH2      OT      -0.834000       15.9994           0
     17970 TIP3     3217     TIP3     H1       HT       0.417000       1.00800           0
     17971 TIP3     3217     TIP3     H2       HT       0.417000       1.00800           0
     17972 TIP3     3218     TIP3     OH2      OT      -0.834000       15.9994           0
     17973 TIP3     3218     TIP3     H1       HT       0.417000       1.00800           0
     17974 TIP3     3218     TIP3     H2       HT       0.417000       1.00800           0
     17975 TIP3     3219     TIP3     OH2      OT      -0.834000       15.9994           0
     17976 TIP3     3219     TIP3     H1       HT       0.417000       1.00800           0
     17977 TIP3     3219     TIP3     H2       HT       0.417000       1.00800           0
     17978 TIP3     3220     TIP3     OH2      OT      -0.834000       15.9994           0
     17979 TIP3     3220     TIP3     H1       HT       0.417000       1.00800           0
     17980 TIP3     3220     TIP3     H2       HT       0.417000       1.00800           0
     17981 TIP3     3221     TIP3     OH2      OT      -0.834000       15.9994           0
     17982 TIP3     3221     TIP3     H1       HT       0.417000       1.00800           0
     17983 TIP3     3221     TIP3     H2       HT       0.417000       1.00800           0
     17984 TIP3     3222     TIP3     OH2      OT      -0.834000       15.9994           0
     17985 TIP3     3222     TIP3     H1       HT       0.417000       1.00800           0
     17986 TIP3     3222     TIP3     H2       HT       0.417000       1.00800           0
     17987 TIP3     3223     TIP3     OH2      OT      -0.834000       15.9994           0
     17988 TIP3     3223     TIP3     H1       HT       0.417000       1.00800           0
     17989 TIP3     3223     TIP3     H2       HT       0.417000       1.00800           0
     17990 TIP3     3224     TIP3     OH2      OT      -0.834000       15.9994           0
     17991 TIP3     3224     TIP3     H1       HT       0.417000       1.00800           0
     17992 TIP3     3224     TIP3     H2       HT       0.417000       1.00800           0
     17993 TIP3     3225     TIP3     OH2      OT      -0.834000       15.9994           0
     17994 TIP3     3225     TIP3     H1       HT       0.417000       1.00800           0
     17995 TIP3     3225     TIP3     H2       HT       0.417000       1.00800           0
     17996 TIP3     3226     TIP3     OH2      OT      -0.834000       15.9994           0
     17997 TIP3     3226     TIP3     H1       HT       0.417000       1.00800           0
     17998 TIP3     3226     TIP3     H2       HT       0.417000       1.00800           0
     17999 TIP3     3227     TIP3     OH2      OT      -0.834000       15.9994           0
     18000 TIP3     3227     TIP3     H1       HT       0.417000       1.00800           0
     18001 TIP3     3227     TIP3     H2       HT       0.417000       1.00800           0
     18002 TIP3     3228     TIP3     OH2      OT      -0.834000       15.9994           0
     18003 TIP3     3228     TIP3     H1       HT       0.417000       1.00800           0
     18004 TIP3     3228     TIP3     H2       HT       0.417000       1.00800           0
     18005 TIP3     3229     TIP3     OH2      OT      -0.834000       15.9994           0
     18006 TIP3     3229     TIP3     H1       HT       0.417000       1.00800           0
     18007 TIP3     3229     TIP3     H2       HT       0.417000       1.00800           0
     18008 TIP3     3230     TIP3     OH2      OT      -0.834000       15.9994           0
     18009 TIP3     3230     TIP3     H1       HT       0.417000       1.00800           0
     18010 TIP3     3230     TIP3     H2       HT       0.417000       1.00800           0
     18011 TIP3     3231     TIP3     OH2      OT      -0.834000       15.9994           0
     18012 TIP3     3231     TIP3     H1       HT       0.417000       1.00800           0
     18013 TIP3     3231     TIP3     H2       HT       0.417000       1.00800           0
     18014 TIP3     3232     TIP3     OH2      OT      -0.834000       15.9994           0
     18015 TIP3     3232     TIP3     H1       HT       0.417000       1.00800           0
     18016 TIP3     3232     TIP3     H2       HT       0.417000       1.00800           0
     18017 TIP3     3233     TIP3     OH2      OT      -0.834000       15.9994           0
     18018 TIP3     3233     TIP3     H1       HT       0.417000       1.00800           0
     18019 TIP3     3233     TIP3     H2       HT       0.417000       1.00800           0
     18020 TIP3     3234     TIP3     OH2      OT      -0.834000       15.9994           0
     18021 TIP3     3234     TIP3     H1       HT       0.417000       1.00800           0
     18022 TIP3     3234     TIP3     H2       HT       0.417000       1.00800           0
     18023 TIP3     3235     TIP3     OH2      OT      -0.834000       15.9994           0
     18024 TIP3     3235     TIP3     H1       HT       0.417000       1.00800           0
     18025 TIP3     3235     TIP3     H2       HT       0.417000       1.00800           0
     18026 TIP3     3236     TIP3     OH2      OT      -0.834000       15.9994           0
     18027 TIP3     3236     TIP3     H1       HT       0.417000       1.00800           0
     18028 TIP3     3236     TIP3     H2       HT       0.417000       1.00800           0
     18029 TIP3     3237     TIP3     OH2      OT      -0.834000       15.9994           0
     18030 TIP3     3237     TIP3     H1       HT       0.417000       1.00800           0
     18031 TIP3     3237     TIP3     H2       HT       0.417000       1.00800           0
     18032 TIP3     3238     TIP3     OH2      OT      -0.834000       15.9994           0
     18033 TIP3     3238     TIP3     H1       HT       0.417000       1.00800           0
     18034 TIP3     3238     TIP3     H2       HT       0.417000       1.00800           0
     18035 TIP3     3239     TIP3     OH2      OT      -0.834000       15.9994           0
     18036 TIP3     3239     TIP3     H1       HT       0.417000       1.00800           0
     18037 TIP3     3239     TIP3     H2       HT       0.417000       1.00800           0
     18038 TIP3     3240     TIP3     OH2      OT      -0.834000       15.9994           0
     18039 TIP3     3240     TIP3     H1       HT       0.417000       1.00800           0
     18040 TIP3     3240     TIP3     H2       HT       0.417000       1.00800           0
     18041 TIP3     3241     TIP3     OH2      OT      -0.834000       15.9994           0
     18042 TIP3     3241     TIP3     H1       HT       0.417000       1.00800           0
     18043 TIP3     3241     TIP3     H2       HT       0.417000       1.00800           0
     18044 TIP3     3242     TIP3     OH2      OT      -0.834000       15.9994           0
     18045 TIP3     3242     TIP3     H1       HT       0.417000       1.00800           0
     18046 TIP3     3242     TIP3     H2       HT       0.417000       1.00800           0
     18047 TIP3     3243     TIP3     OH2      OT      -0.834000       15.9994           0
     18048 TIP3     3243     TIP3     H1       HT       0.417000       1.00800           0
     18049 TIP3     3243     TIP3     H2       HT       0.417000       1.00800           0
     18050 TIP3     3244     TIP3     OH2      OT      -0.834000       15.9994           0
     18051 TIP3     3244     TIP3     H1       HT       0.417000       1.00800           0
     18052 TIP3     3244     TIP3     H2       HT       0.417000       1.00800           0
     18053 TIP3     3245     TIP3     OH2      OT      -0.834000       15.9994           0
     18054 TIP3     3245     TIP3     H1       HT       0.417000       1.00800           0
     18055 TIP3     3245     TIP3     H2       HT       0.417000       1.00800           0
     18056 TIP3     3246     TIP3     OH2      OT      -0.834000       15.9994           0
     18057 TIP3     3246     TIP3     H1       HT       0.417000       1.00800           0
     18058 TIP3     3246     TIP3     H2       HT       0.417000       1.00800           0
     18059 TIP3     3247     TIP3     OH2      OT      -0.834000       15.9994           0
     18060 TIP3     3247     TIP3     H1       HT       0.417000       1.00800           0
     18061 TIP3     3247     TIP3     H2       HT       0.417000       1.00800           0
     18062 TIP3     3248     TIP3     OH2      OT      -0.834000       15.9994           0
     18063 TIP3     3248     TIP3     H1       HT       0.417000       1.00800           0
     18064 TIP3     3248     TIP3     H2       HT       0.417000       1.00800           0
     18065 TIP3     3249     TIP3     OH2      OT      -0.834000       15.9994           0
     18066 TIP3     3249     TIP3     H1       HT       0.417000       1.00800           0
     18067 TIP3     3249     TIP3     H2       HT       0.417000       1.00800           0
     18068 TIP3     3250     TIP3     OH2      OT      -0.834000       15.9994           0
     18069 TIP3     3250     TIP3     H1       HT       0.417000       1.00800           0
     18070 TIP3     3250     TIP3     H2       HT       0.417000       1.00800           0
     18071 TIP3     3251     TIP3     OH2      OT      -0.834000       15.9994           0
     18072 TIP3     3251     TIP3     H1       HT       0.417000       1.00800           0
     18073 TIP3     3251     TIP3     H2       HT       0.417000       1.00800           0
     18074 TIP3     3252     TIP3     OH2      OT      -0.834000       15.9994           0
     18075 TIP3     3252     TIP3     H1       HT       0.417000       1.00800           0
     18076 TIP3     3252     TIP3     H2       HT       0.417000       1.00800           0
     18077 TIP3     3253     TIP3     OH2      OT      -0.834000       15.9994           0
     18078 TIP3     3253     TIP3     H1       HT       0.417000       1.00800           0
     18079 TIP3     3253     TIP3     H2       HT       0.417000       1.00800           0
     18080 TIP3     3254     TIP3     OH2      OT      -0.834000       15.9994           0
     18081 TIP3     3254     TIP3     H1       HT       0.417000       1.00800           0
     18082 TIP3     3254     TIP3     H2       HT       0.417000       1.00800           0
     18083 TIP3     3255     TIP3     OH2      OT      -0.834000       15.9994           0
     18084 TIP3     3255     TIP3     H1       HT       0.417000       1.00800           0
     18085 TIP3     3255     TIP3     H2       HT       0.417000       1.00800           0
     18086 TIP3     3256     TIP3     OH2      OT      -0.834000       15.9994           0
     18087 TIP3     3256     TIP3     H1       HT       0.417000       1.00800           0
     18088 TIP3     3256     TIP3     H2       HT       0.417000       1.00800           0
     18089 TIP3     3257     TIP3     OH2      OT      -0.834000       15.9994           0
     18090 TIP3     3257     TIP3     H1       HT       0.417000       1.00800           0
     18091 TIP3     3257     TIP3     H2       HT       0.417000       1.00800           0
     18092 TIP3     3258     TIP3     OH2      OT      -0.834000       15.9994           0
     18093 TIP3     3258     TIP3     H1       HT       0.417000       1.00800           0
     18094 TIP3     3258     TIP3     H2       HT       0.417000       1.00800           0
     18095 TIP3     3259     TIP3     OH2      OT      -0.834000       15.9994           0
     18096 TIP3     3259     TIP3     H1       HT       0.417000       1.00800           0
     18097 TIP3     3259     TIP3     H2       HT       0.417000       1.00800           0
     18098 TIP3     3260     TIP3     OH2      OT      -0.834000       15.9994           0
     18099 TIP3     3260     TIP3     H1       HT       0.417000       1.00800           0
     18100 TIP3     3260     TIP3     H2       HT       0.417000       1.00800           0
     18101 TIP3     3261     TIP3     OH2      OT      -0.834000       15.9994           0
     18102 TIP3     3261     TIP3     H1       HT       0.417000       1.00800           0
     18103 TIP3     3261     TIP3     H2       HT       0.417000       1.00800           0
     18104 TIP3     3262     TIP3     OH2      OT      -0.834000       15.9994           0
     18105 TIP3     3262     TIP3     H1       HT       0.417000       1.00800           0
     18106 TIP3     3262     TIP3     H2       HT       0.417000       1.00800           0
     18107 TIP3     3263     TIP3     OH2      OT      -0.834000       15.9994           0
     18108 TIP3     3263     TIP3     H1       HT       0.417000       1.00800           0
     18109 TIP3     3263     TIP3     H2       HT       0.417000       1.00800           0
     18110 TIP3     3264     TIP3     OH2      OT      -0.834000       15.9994           0
     18111 TIP3     3264     TIP3     H1       HT       0.417000       1.00800           0
     18112 TIP3     3264     TIP3     H2       HT       0.417000       1.00800           0
     18113 TIP3     3265     TIP3     OH2      OT      -0.834000       15.9994           0
     18114 TIP3     3265     TIP3     H1       HT       0.417000       1.00800           0
     18115 TIP3     3265     TIP3     H2       HT       0.417000       1.00800           0
     18116 TIP3     3266     TIP3     OH2      OT      -0.834000       15.9994           0
     18117 TIP3     3266     TIP3     H1       HT       0.417000       1.00800           0
     18118 TIP3     3266     TIP3     H2       HT       0.417000       1.00800           0
     18119 TIP3     3267     TIP3     OH2      OT      -0.834000       15.9994           0
     18120 TIP3     3267     TIP3     H1       HT       0.417000       1.00800           0
     18121 TIP3     3267     TIP3     H2       HT       0.417000       1.00800           0
     18122 TIP3     3268     TIP3     OH2      OT      -0.834000       15.9994           0
     18123 TIP3     3268     TIP3     H1       HT       0.417000       1.00800           0
     18124 TIP3     3268     TIP3     H2       HT       0.417000       1.00800           0
     18125 TIP3     3269     TIP3     OH2      OT      -0.834000       15.9994           0
     18126 TIP3     3269     TIP3     H1       HT       0.417000       1.00800           0
     18127 TIP3     3269     TIP3     H2       HT       0.417000       1.00800           0
     18128 TIP3     3270     TIP3     OH2      OT      -0.834000       15.9994           0
     18129 TIP3     3270     TIP3     H1       HT       0.417000       1.00800           0
     18130 TIP3     3270     TIP3     H2       HT       0.417000       1.00800           0
     18131 TIP3     3271     TIP3     OH2      OT      -0.834000       15.9994           0
     18132 TIP3     3271     TIP3     H1       HT       0.417000       1.00800           0
     18133 TIP3     3271     TIP3     H2       HT       0.417000       1.00800           0
     18134 TIP3     3272     TIP3     OH2      OT      -0.834000       15.9994           0
     18135 TIP3     3272     TIP3     H1       HT       0.417000       1.00800           0
     18136 TIP3     3272     TIP3     H2       HT       0.417000       1.00800           0
     18137 TIP3     3273     TIP3     OH2      OT      -0.834000       15.9994           0
     18138 TIP3     3273     TIP3     H1       HT       0.417000       1.00800           0
     18139 TIP3     3273     TIP3     H2       HT       0.417000       1.00800           0
     18140 TIP3     3274     TIP3     OH2      OT      -0.834000       15.9994           0
     18141 TIP3     3274     TIP3     H1       HT       0.417000       1.00800           0
     18142 TIP3     3274     TIP3     H2       HT       0.417000       1.00800           0
     18143 TIP3     3275     TIP3     OH2      OT      -0.834000       15.9994           0
     18144 TIP3     3275     TIP3     H1       HT       0.417000       1.00800           0
     18145 TIP3     3275     TIP3     H2       HT       0.417000       1.00800           0
     18146 TIP3     3276     TIP3     OH2      OT      -0.834000       15.9994           0
     18147 TIP3     3276     TIP3     H1       HT       0.417000       1.00800           0
     18148 TIP3     3276     TIP3     H2       HT       0.417000       1.00800           0
     18149 TIP3     3277     TIP3     OH2      OT      -0.834000       15.9994           0
     18150 TIP3     3277     TIP3     H1       HT       0.417000       1.00800           0
     18151 TIP3     3277     TIP3     H2       HT       0.417000       1.00800           0
     18152 TIP3     3278     TIP3     OH2      OT      -0.834000       15.9994           0
     18153 TIP3     3278     TIP3     H1       HT       0.417000       1.00800           0
     18154 TIP3     3278     TIP3     H2       HT       0.417000       1.00800           0
     18155 TIP3     3279     TIP3     OH2      OT      -0.834000       15.9994           0
     18156 TIP3     3279     TIP3     H1       HT       0.417000       1.00800           0
     18157 TIP3     3279     TIP3     H2       HT       0.417000       1.00800           0
     18158 TIP3     3280     TIP3     OH2      OT      -0.834000       15.9994           0
     18159 TIP3     3280     TIP3     H1       HT       0.417000       1.00800           0
     18160 TIP3     3280     TIP3     H2       HT       0.417000       1.00800           0
     18161 TIP3     3281     TIP3     OH2      OT      -0.834000       15.9994           0
     18162 TIP3     3281     TIP3     H1       HT       0.417000       1.00800           0
     18163 TIP3     3281     TIP3     H2       HT       0.417000       1.00800           0
     18164 TIP3     3282     TIP3     OH2      OT      -0.834000       15.9994           0
     18165 TIP3     3282     TIP3     H1       HT       0.417000       1.00800           0
     18166 TIP3     3282     TIP3     H2       HT       0.417000       1.00800           0
     18167 TIP3     3283     TIP3     OH2      OT      -0.834000       15.9994           0
     18168 TIP3     3283     TIP3     H1       HT       0.417000       1.00800           0
     18169 TIP3     3283     TIP3     H2       HT       0.417000       1.00800           0
     18170 TIP3     3284     TIP3     OH2      OT      -0.834000       15.9994           0
     18171 TIP3     3284     TIP3     H1       HT       0.417000       1.00800           0
     18172 TIP3     3284     TIP3     H2       HT       0.417000       1.00800           0
     18173 TIP3     3285     TIP3     OH2      OT      -0.834000       15.9994           0
     18174 TIP3     3285     TIP3     H1       HT       0.417000       1.00800           0
     18175 TIP3     3285     TIP3     H2       HT       0.417000       1.00800           0
     18176 TIP3     3286     TIP3     OH2      OT      -0.834000       15.9994           0
     18177 TIP3     3286     TIP3     H1       HT       0.417000       1.00800           0
     18178 TIP3     3286     TIP3     H2       HT       0.417000       1.00800           0
     18179 TIP3     3287     TIP3     OH2      OT      -0.834000       15.9994           0
     18180 TIP3     3287     TIP3     H1       HT       0.417000       1.00800           0
     18181 TIP3     3287     TIP3     H2       HT       0.417000       1.00800           0
     18182 TIP3     3288     TIP3     OH2      OT      -0.834000       15.9994           0
     18183 TIP3     3288     TIP3     H1       HT       0.417000       1.00800           0
     18184 TIP3     3288     TIP3     H2       HT       0.417000       1.00800           0
     18185 TIP3     3289     TIP3     OH2      OT      -0.834000       15.9994           0
     18186 TIP3     3289     TIP3     H1       HT       0.417000       1.00800           0
     18187 TIP3     3289     TIP3     H2       HT       0.417000       1.00800           0
     18188 TIP3     3290     TIP3     OH2      OT      -0.834000       15.9994           0
     18189 TIP3     3290     TIP3     H1       HT       0.417000       1.00800           0
     18190 TIP3     3290     TIP3     H2       HT       0.417000       1.00800           0
     18191 TIP3     3291     TIP3     OH2      OT      -0.834000       15.9994           0
     18192 TIP3     3291     TIP3     H1       HT       0.417000       1.00800           0
     18193 TIP3     3291     TIP3     H2       HT       0.417000       1.00800           0
     18194 TIP3     3292     TIP3     OH2      OT      -0.834000       15.9994           0
     18195 TIP3     3292     TIP3     H1       HT       0.417000       1.00800           0
     18196 TIP3     3292     TIP3     H2       HT       0.417000       1.00800           0
     18197 TIP3     3293     TIP3     OH2      OT      -0.834000       15.9994           0
     18198 TIP3     3293     TIP3     H1       HT       0.417000       1.00800           0
     18199 TIP3     3293     TIP3     H2       HT       0.417000       1.00800           0
     18200 TIP3     3294     TIP3     OH2      OT      -0.834000       15.9994           0
     18201 TIP3     3294     TIP3     H1       HT       0.417000       1.00800           0
     18202 TIP3     3294     TIP3     H2       HT       0.417000       1.00800           0
     18203 TIP3     3295     TIP3     OH2      OT      -0.834000       15.9994           0
     18204 TIP3     3295     TIP3     H1       HT       0.417000       1.00800           0
     18205 TIP3     3295     TIP3     H2       HT       0.417000       1.00800           0
     18206 TIP3     3296     TIP3     OH2      OT      -0.834000       15.9994           0
     18207 TIP3     3296     TIP3     H1       HT       0.417000       1.00800           0
     18208 TIP3     3296     TIP3     H2       HT       0.417000       1.00800           0
     18209 TIP3     3297     TIP3     OH2      OT      -0.834000       15.9994           0
     18210 TIP3     3297     TIP3     H1       HT       0.417000       1.00800           0
     18211 TIP3     3297     TIP3     H2       HT       0.417000       1.00800           0
     18212 TIP3     3298     TIP3     OH2      OT      -0.834000       15.9994           0
     18213 TIP3     3298     TIP3     H1       HT       0.417000       1.00800           0
     18214 TIP3     3298     TIP3     H2       HT       0.417000       1.00800           0
     18215 TIP3     3299     TIP3     OH2      OT      -0.834000       15.9994           0
     18216 TIP3     3299     TIP3     H1       HT       0.417000       1.00800           0
     18217 TIP3     3299     TIP3     H2       HT       0.417000       1.00800           0
     18218 TIP3     3300     TIP3     OH2      OT      -0.834000       15.9994           0
     18219 TIP3     3300     TIP3     H1       HT       0.417000       1.00800           0
     18220 TIP3     3300     TIP3     H2       HT       0.417000       1.00800           0
     18221 TIP3     3301     TIP3     OH2      OT      -0.834000       15.9994           0
     18222 TIP3     3301     TIP3     H1       HT       0.417000       1.00800           0
     18223 TIP3     3301     TIP3     H2       HT       0.417000       1.00800           0
     18224 TIP3     3302     TIP3     OH2      OT      -0.834000       15.9994           0
     18225 TIP3     3302     TIP3     H1       HT       0.417000       1.00800           0
     18226 TIP3     3302     TIP3     H2       HT       0.417000       1.00800           0
     18227 TIP3     3303     TIP3     OH2      OT      -0.834000       15.9994           0
     18228 TIP3     3303     TIP3     H1       HT       0.417000       1.00800           0
     18229 TIP3     3303     TIP3     H2       HT       0.417000       1.00800           0
     18230 TIP3     3304     TIP3     OH2      OT      -0.834000       15.9994           0
     18231 TIP3     3304     TIP3     H1       HT       0.417000       1.00800           0
     18232 TIP3     3304     TIP3     H2       HT       0.417000       1.00800           0
     18233 TIP3     3305     TIP3     OH2      OT      -0.834000       15.9994           0
     18234 TIP3     3305     TIP3     H1       HT       0.417000       1.00800           0
     18235 TIP3     3305     TIP3     H2       HT       0.417000       1.00800           0
     18236 TIP3     3306     TIP3     OH2      OT      -0.834000       15.9994           0
     18237 TIP3     3306     TIP3     H1       HT       0.417000       1.00800           0
     18238 TIP3     3306     TIP3     H2       HT       0.417000       1.00800           0
     18239 TIP3     3307     TIP3     OH2      OT      -0.834000       15.9994           0
     18240 TIP3     3307     TIP3     H1       HT       0.417000       1.00800           0
     18241 TIP3     3307     TIP3     H2       HT       0.417000       1.00800           0
     18242 TIP3     3308     TIP3     OH2      OT      -0.834000       15.9994           0
     18243 TIP3     3308     TIP3     H1       HT       0.417000       1.00800           0
     18244 TIP3     3308     TIP3     H2       HT       0.417000       1.00800           0
     18245 TIP3     3309     TIP3     OH2      OT      -0.834000       15.9994           0
     18246 TIP3     3309     TIP3     H1       HT       0.417000       1.00800           0
     18247 TIP3     3309     TIP3     H2       HT       0.417000       1.00800           0
     18248 TIP3     3310     TIP3     OH2      OT      -0.834000       15.9994           0
     18249 TIP3     3310     TIP3     H1       HT       0.417000       1.00800           0
     18250 TIP3     3310     TIP3     H2       HT       0.417000       1.00800           0
     18251 TIP3     3311     TIP3     OH2      OT      -0.834000       15.9994           0
     18252 TIP3     3311     TIP3     H1       HT       0.417000       1.00800           0
     18253 TIP3     3311     TIP3     H2       HT       0.417000       1.00800           0
     18254 TIP3     3312     TIP3     OH2      OT      -0.834000       15.9994           0
     18255 TIP3     3312     TIP3     H1       HT       0.417000       1.00800           0
     18256 TIP3     3312     TIP3     H2       HT       0.417000       1.00800           0
     18257 TIP3     3313     TIP3     OH2      OT      -0.834000       15.9994           0
     18258 TIP3     3313     TIP3     H1       HT       0.417000       1.00800           0
     18259 TIP3     3313     TIP3     H2       HT       0.417000       1.00800           0
     18260 TIP3     3314     TIP3     OH2      OT      -0.834000       15.9994           0
     18261 TIP3     3314     TIP3     H1       HT       0.417000       1.00800           0
     18262 TIP3     3314     TIP3     H2       HT       0.417000       1.00800           0
     18263 TIP3     3315     TIP3     OH2      OT      -0.834000       15.9994           0
     18264 TIP3     3315     TIP3     H1       HT       0.417000       1.00800           0
     18265 TIP3     3315     TIP3     H2       HT       0.417000       1.00800           0
     18266 TIP3     3316     TIP3     OH2      OT      -0.834000       15.9994           0
     18267 TIP3     3316     TIP3     H1       HT       0.417000       1.00800           0
     18268 TIP3     3316     TIP3     H2       HT       0.417000       1.00800           0
     18269 TIP3     3317     TIP3     OH2      OT      -0.834000       15.9994           0
     18270 TIP3     3317     TIP3     H1       HT       0.417000       1.00800           0
     18271 TIP3     3317     TIP3     H2       HT       0.417000       1.00800           0
     18272 TIP3     3318     TIP3     OH2      OT      -0.834000       15.9994           0
     18273 TIP3     3318     TIP3     H1       HT       0.417000       1.00800           0
     18274 TIP3     3318     TIP3     H2       HT       0.417000       1.00800           0
     18275 TIP3     3319     TIP3     OH2      OT      -0.834000       15.9994           0
     18276 TIP3     3319     TIP3     H1       HT       0.417000       1.00800           0
     18277 TIP3     3319     TIP3     H2       HT       0.417000       1.00800           0
     18278 TIP3     3320     TIP3     OH2      OT      -0.834000       15.9994           0
     18279 TIP3     3320     TIP3     H1       HT       0.417000       1.00800           0
     18280 TIP3     3320     TIP3     H2       HT       0.417000       1.00800           0
     18281 TIP3     3321     TIP3     OH2      OT      -0.834000       15.9994           0
     18282 TIP3     3321     TIP3     H1       HT       0.417000       1.00800           0
     18283 TIP3     3321     TIP3     H2       HT       0.417000       1.00800           0
     18284 TIP3     3322     TIP3     OH2      OT      -0.834000       15.9994           0
     18285 TIP3     3322     TIP3     H1       HT       0.417000       1.00800           0
     18286 TIP3     3322     TIP3     H2       HT       0.417000       1.00800           0
     18287 TIP3     3323     TIP3     OH2      OT      -0.834000       15.9994           0
     18288 TIP3     3323     TIP3     H1       HT       0.417000       1.00800           0
     18289 TIP3     3323     TIP3     H2       HT       0.417000       1.00800           0
     18290 TIP3     3324     TIP3     OH2      OT      -0.834000       15.9994           0
     18291 TIP3     3324     TIP3     H1       HT       0.417000       1.00800           0
     18292 TIP3     3324     TIP3     H2       HT       0.417000       1.00800           0
     18293 TIP3     3325     TIP3     OH2      OT      -0.834000       15.9994           0
     18294 TIP3     3325     TIP3     H1       HT       0.417000       1.00800           0
     18295 TIP3     3325     TIP3     H2       HT       0.417000       1.00800           0
     18296 TIP3     3326     TIP3     OH2      OT      -0.834000       15.9994           0
     18297 TIP3     3326     TIP3     H1       HT       0.417000       1.00800           0
     18298 TIP3     3326     TIP3     H2       HT       0.417000       1.00800           0
     18299 TIP3     3327     TIP3     OH2      OT      -0.834000       15.9994           0
     18300 TIP3     3327     TIP3     H1       HT       0.417000       1.00800           0
     18301 TIP3     3327     TIP3     H2       HT       0.417000       1.00800           0
     18302 TIP3     3328     TIP3     OH2      OT      -0.834000       15.9994           0
     18303 TIP3     3328     TIP3     H1       HT       0.417000       1.00800           0
     18304 TIP3     3328     TIP3     H2       HT       0.417000       1.00800           0
     18305 TIP3     3329     TIP3     OH2      OT      -0.834000       15.9994           0
     18306 TIP3     3329     TIP3     H1       HT       0.417000       1.00800           0
     18307 TIP3     3329     TIP3     H2       HT       0.417000       1.00800           0
     18308 TIP3     3330     TIP3     OH2      OT      -0.834000       15.9994           0
     18309 TIP3     3330     TIP3     H1       HT       0.417000       1.00800           0
     18310 TIP3     3330     TIP3     H2       HT       0.417000       1.00800           0
     18311 TIP3     3331     TIP3     OH2      OT      -0.834000       15.9994           0
     18312 TIP3     3331     TIP3     H1       HT       0.417000       1.00800           0
     18313 TIP3     3331     TIP3     H2       HT       0.417000       1.00800           0
     18314 TIP3     3332     TIP3     OH2      OT      -0.834000       15.9994           0
     18315 TIP3     3332     TIP3     H1       HT       0.417000       1.00800           0
     18316 TIP3     3332     TIP3     H2       HT       0.417000       1.00800           0
     18317 TIP3     3333     TIP3     OH2      OT      -0.834000       15.9994           0
     18318 TIP3     3333     TIP3     H1       HT       0.417000       1.00800           0
     18319 TIP3     3333     TIP3     H2       HT       0.417000       1.00800           0
     18320 TIP3     3334     TIP3     OH2      OT      -0.834000       15.9994           0
     18321 TIP3     3334     TIP3     H1       HT       0.417000       1.00800           0
     18322 TIP3     3334     TIP3     H2       HT       0.417000       1.00800           0
     18323 TIP3     3335     TIP3     OH2      OT      -0.834000       15.9994           0
     18324 TIP3     3335     TIP3     H1       HT       0.417000       1.00800           0
     18325 TIP3     3335     TIP3     H2       HT       0.417000       1.00800           0
     18326 TIP3     3336     TIP3     OH2      OT      -0.834000       15.9994           0
     18327 TIP3     3336     TIP3     H1       HT       0.417000       1.00800           0
     18328 TIP3     3336     TIP3     H2       HT       0.417000       1.00800           0
     18329 TIP3     3337     TIP3     OH2      OT      -0.834000       15.9994           0
     18330 TIP3     3337     TIP3     H1       HT       0.417000       1.00800           0
     18331 TIP3     3337     TIP3     H2       HT       0.417000       1.00800           0
     18332 TIP3     3338     TIP3     OH2      OT      -0.834000       15.9994           0
     18333 TIP3     3338     TIP3     H1       HT       0.417000       1.00800           0
     18334 TIP3     3338     TIP3     H2       HT       0.417000       1.00800           0
     18335 TIP3     3339     TIP3     OH2      OT      -0.834000       15.9994           0
     18336 TIP3     3339     TIP3     H1       HT       0.417000       1.00800           0
     18337 TIP3     3339     TIP3     H2       HT       0.417000       1.00800           0
     18338 TIP3     3340     TIP3     OH2      OT      -0.834000       15.9994           0
     18339 TIP3     3340     TIP3     H1       HT       0.417000       1.00800           0
     18340 TIP3     3340     TIP3     H2       HT       0.417000       1.00800           0
     18341 TIP3     3341     TIP3     OH2      OT      -0.834000       15.9994           0
     18342 TIP3     3341     TIP3     H1       HT       0.417000       1.00800           0
     18343 TIP3     3341     TIP3     H2       HT       0.417000       1.00800           0
     18344 TIP3     3342     TIP3     OH2      OT      -0.834000       15.9994           0
     18345 TIP3     3342     TIP3     H1       HT       0.417000       1.00800           0
     18346 TIP3     3342     TIP3     H2       HT       0.417000       1.00800           0
     18347 TIP3     3343     TIP3     OH2      OT      -0.834000       15.9994           0
     18348 TIP3     3343     TIP3     H1       HT       0.417000       1.00800           0
     18349 TIP3     3343     TIP3     H2       HT       0.417000       1.00800           0
     18350 TIP3     3344     TIP3     OH2      OT      -0.834000       15.9994           0
     18351 TIP3     3344     TIP3     H1       HT       0.417000       1.00800           0
     18352 TIP3     3344     TIP3     H2       HT       0.417000       1.00800           0
     18353 TIP3     3345     TIP3     OH2      OT      -0.834000       15.9994           0
     18354 TIP3     3345     TIP3     H1       HT       0.417000       1.00800           0
     18355 TIP3     3345     TIP3     H2       HT       0.417000       1.00800           0
     18356 TIP3     3346     TIP3     OH2      OT      -0.834000       15.9994           0
     18357 TIP3     3346     TIP3     H1       HT       0.417000       1.00800           0
     18358 TIP3     3346     TIP3     H2       HT       0.417000       1.00800           0
     18359 TIP3     3347     TIP3     OH2      OT      -0.834000       15.9994           0
     18360 TIP3     3347     TIP3     H1       HT       0.417000       1.00800           0
     18361 TIP3     3347     TIP3     H2       HT       0.417000       1.00800           0
     18362 TIP3     3348     TIP3     OH2      OT      -0.834000       15.9994           0
     18363 TIP3     3348     TIP3     H1       HT       0.417000       1.00800           0
     18364 TIP3     3348     TIP3     H2       HT       0.417000       1.00800           0
     18365 TIP3     3349     TIP3     OH2      OT      -0.834000       15.9994           0
     18366 TIP3     3349     TIP3     H1       HT       0.417000       1.00800           0
     18367 TIP3     3349     TIP3     H2       HT       0.417000       1.00800           0
     18368 TIP3     3350     TIP3     OH2      OT      -0.834000       15.9994           0
     18369 TIP3     3350     TIP3     H1       HT       0.417000       1.00800           0
     18370 TIP3     3350     TIP3     H2       HT       0.417000       1.00800           0
     18371 TIP3     3351     TIP3     OH2      OT      -0.834000       15.9994           0
     18372 TIP3     3351     TIP3     H1       HT       0.417000       1.00800           0
     18373 TIP3     3351     TIP3     H2       HT       0.417000       1.00800           0
     18374 TIP3     3352     TIP3     OH2      OT      -0.834000       15.9994           0
     18375 TIP3     3352     TIP3     H1       HT       0.417000       1.00800           0
     18376 TIP3     3352     TIP3     H2       HT       0.417000       1.00800           0
     18377 TIP3     3353     TIP3     OH2      OT      -0.834000       15.9994           0
     18378 TIP3     3353     TIP3     H1       HT       0.417000       1.00800           0
     18379 TIP3     3353     TIP3     H2       HT       0.417000       1.00800           0
     18380 TIP3     3354     TIP3     OH2      OT      -0.834000       15.9994           0
     18381 TIP3     3354     TIP3     H1       HT       0.417000       1.00800           0
     18382 TIP3     3354     TIP3     H2       HT       0.417000       1.00800           0
     18383 TIP3     3355     TIP3     OH2      OT      -0.834000       15.9994           0
     18384 TIP3     3355     TIP3     H1       HT       0.417000       1.00800           0
     18385 TIP3     3355     TIP3     H2       HT       0.417000       1.00800           0
     18386 TIP3     3356     TIP3     OH2      OT      -0.834000       15.9994           0
     18387 TIP3     3356     TIP3     H1       HT       0.417000       1.00800           0
     18388 TIP3     3356     TIP3     H2       HT       0.417000       1.00800           0
     18389 TIP3     3357     TIP3     OH2      OT      -0.834000       15.9994           0
     18390 TIP3     3357     TIP3     H1       HT       0.417000       1.00800           0
     18391 TIP3     3357     TIP3     H2       HT       0.417000       1.00800           0
     18392 TIP3     3358     TIP3     OH2      OT      -0.834000       15.9994           0
     18393 TIP3     3358     TIP3     H1       HT       0.417000       1.00800           0
     18394 TIP3     3358     TIP3     H2       HT       0.417000       1.00800           0
     18395 TIP3     3359     TIP3     OH2      OT      -0.834000       15.9994           0
     18396 TIP3     3359     TIP3     H1       HT       0.417000       1.00800           0
     18397 TIP3     3359     TIP3     H2       HT       0.417000       1.00800           0
     18398 TIP3     3360     TIP3     OH2      OT      -0.834000       15.9994           0
     18399 TIP3     3360     TIP3     H1       HT       0.417000       1.00800           0
     18400 TIP3     3360     TIP3     H2       HT       0.417000       1.00800           0
     18401 TIP3     3361     TIP3     OH2      OT      -0.834000       15.9994           0
     18402 TIP3     3361     TIP3     H1       HT       0.417000       1.00800           0
     18403 TIP3     3361     TIP3     H2       HT       0.417000       1.00800           0
     18404 TIP3     3362     TIP3     OH2      OT      -0.834000       15.9994           0
     18405 TIP3     3362     TIP3     H1       HT       0.417000       1.00800           0
     18406 TIP3     3362     TIP3     H2       HT       0.417000       1.00800           0
     18407 TIP3     3363     TIP3     OH2      OT      -0.834000       15.9994           0
     18408 TIP3     3363     TIP3     H1       HT       0.417000       1.00800           0
     18409 TIP3     3363     TIP3     H2       HT       0.417000       1.00800           0
     18410 TIP3     3364     TIP3     OH2      OT      -0.834000       15.9994           0
     18411 TIP3     3364     TIP3     H1       HT       0.417000       1.00800           0
     18412 TIP3     3364     TIP3     H2       HT       0.417000       1.00800           0
     18413 TIP3     3365     TIP3     OH2      OT      -0.834000       15.9994           0
     18414 TIP3     3365     TIP3     H1       HT       0.417000       1.00800           0
     18415 TIP3     3365     TIP3     H2       HT       0.417000       1.00800           0
     18416 TIP3     3366     TIP3     OH2      OT      -0.834000       15.9994           0
     18417 TIP3     3366     TIP3     H1       HT       0.417000       1.00800           0
     18418 TIP3     3366     TIP3     H2       HT       0.417000       1.00800           0
     18419 TIP3     3367     TIP3     OH2      OT      -0.834000       15.9994           0
     18420 TIP3     3367     TIP3     H1       HT       0.417000       1.00800           0
     18421 TIP3     3367     TIP3     H2       HT       0.417000       1.00800           0
     18422 TIP3     3368     TIP3     OH2      OT      -0.834000       15.9994           0
     18423 TIP3     3368     TIP3     H1       HT       0.417000       1.00800           0
     18424 TIP3     3368     TIP3     H2       HT       0.417000       1.00800           0
     18425 TIP3     3369     TIP3     OH2      OT      -0.834000       15.9994           0
     18426 TIP3     3369     TIP3     H1       HT       0.417000       1.00800           0
     18427 TIP3     3369     TIP3     H2       HT       0.417000       1.00800           0
     18428 TIP3     3370     TIP3     OH2      OT      -0.834000       15.9994           0
     18429 TIP3     3370     TIP3     H1       HT       0.417000       1.00800           0
     18430 TIP3     3370     TIP3     H2       HT       0.417000       1.00800           0
     18431 TIP3     3371     TIP3     OH2      OT      -0.834000       15.9994           0
     18432 TIP3     3371     TIP3     H1       HT       0.417000       1.00800           0
     18433 TIP3     3371     TIP3     H2       HT       0.417000       1.00800           0
     18434 TIP3     3372     TIP3     OH2      OT      -0.834000       15.9994           0
     18435 TIP3     3372     TIP3     H1       HT       0.417000       1.00800           0
     18436 TIP3     3372     TIP3     H2       HT       0.417000       1.00800           0
     18437 TIP3     3373     TIP3     OH2      OT      -0.834000       15.9994           0
     18438 TIP3     3373     TIP3     H1       HT       0.417000       1.00800           0
     18439 TIP3     3373     TIP3     H2       HT       0.417000       1.00800           0
     18440 TIP3     3374     TIP3     OH2      OT      -0.834000       15.9994           0
     18441 TIP3     3374     TIP3     H1       HT       0.417000       1.00800           0
     18442 TIP3     3374     TIP3     H2       HT       0.417000       1.00800           0
     18443 TIP3     3375     TIP3     OH2      OT      -0.834000       15.9994           0
     18444 TIP3     3375     TIP3     H1       HT       0.417000       1.00800           0
     18445 TIP3     3375     TIP3     H2       HT       0.417000       1.00800           0
     18446 TIP3     3376     TIP3     OH2      OT      -0.834000       15.9994           0
     18447 TIP3     3376     TIP3     H1       HT       0.417000       1.00800           0
     18448 TIP3     3376     TIP3     H2       HT       0.417000       1.00800           0
     18449 TIP3     3377     TIP3     OH2      OT      -0.834000       15.9994           0
     18450 TIP3     3377     TIP3     H1       HT       0.417000       1.00800           0
     18451 TIP3     3377     TIP3     H2       HT       0.417000       1.00800           0
     18452 TIP3     3378     TIP3     OH2      OT      -0.834000       15.9994           0
     18453 TIP3     3378     TIP3     H1       HT       0.417000       1.00800           0
     18454 TIP3     3378     TIP3     H2       HT       0.417000       1.00800           0
     18455 TIP3     3379     TIP3     OH2      OT      -0.834000       15.9994           0
     18456 TIP3     3379     TIP3     H1       HT       0.417000       1.00800           0
     18457 TIP3     3379     TIP3     H2       HT       0.417000       1.00800           0
     18458 TIP3     3380     TIP3     OH2      OT      -0.834000       15.9994           0
     18459 TIP3     3380     TIP3     H1       HT       0.417000       1.00800           0
     18460 TIP3     3380     TIP3     H2       HT       0.417000       1.00800           0
     18461 TIP3     3381     TIP3     OH2      OT      -0.834000       15.9994           0
     18462 TIP3     3381     TIP3     H1       HT       0.417000       1.00800           0
     18463 TIP3     3381     TIP3     H2       HT       0.417000       1.00800           0
     18464 TIP3     3382     TIP3     OH2      OT      -0.834000       15.9994           0
     18465 TIP3     3382     TIP3     H1       HT       0.417000       1.00800           0
     18466 TIP3     3382     TIP3     H2       HT       0.417000       1.00800           0
     18467 TIP3     3383     TIP3     OH2      OT      -0.834000       15.9994           0
     18468 TIP3     3383     TIP3     H1       HT       0.417000       1.00800           0
     18469 TIP3     3383     TIP3     H2       HT       0.417000       1.00800           0
     18470 TIP3     3384     TIP3     OH2      OT      -0.834000       15.9994           0
     18471 TIP3     3384     TIP3     H1       HT       0.417000       1.00800           0
     18472 TIP3     3384     TIP3     H2       HT       0.417000       1.00800           0
     18473 TIP3     3385     TIP3     OH2      OT      -0.834000       15.9994           0
     18474 TIP3     3385     TIP3     H1       HT       0.417000       1.00800           0
     18475 TIP3     3385     TIP3     H2       HT       0.417000       1.00800           0
     18476 TIP3     3386     TIP3     OH2      OT      -0.834000       15.9994           0
     18477 TIP3     3386     TIP3     H1       HT       0.417000       1.00800           0
     18478 TIP3     3386     TIP3     H2       HT       0.417000       1.00800           0
     18479 TIP3     3387     TIP3     OH2      OT      -0.834000       15.9994           0
     18480 TIP3     3387     TIP3     H1       HT       0.417000       1.00800           0
     18481 TIP3     3387     TIP3     H2       HT       0.417000       1.00800           0
     18482 TIP3     3388     TIP3     OH2      OT      -0.834000       15.9994           0
     18483 TIP3     3388     TIP3     H1       HT       0.417000       1.00800           0
     18484 TIP3     3388     TIP3     H2       HT       0.417000       1.00800           0
     18485 TIP3     3389     TIP3     OH2      OT      -0.834000       15.9994           0
     18486 TIP3     3389     TIP3     H1       HT       0.417000       1.00800           0
     18487 TIP3     3389     TIP3     H2       HT       0.417000       1.00800           0
     18488 TIP3     3390     TIP3     OH2      OT      -0.834000       15.9994           0
     18489 TIP3     3390     TIP3     H1       HT       0.417000       1.00800           0
     18490 TIP3     3390     TIP3     H2       HT       0.417000       1.00800           0
     18491 TIP3     3391     TIP3     OH2      OT      -0.834000       15.9994           0
     18492 TIP3     3391     TIP3     H1       HT       0.417000       1.00800           0
     18493 TIP3     3391     TIP3     H2       HT       0.417000       1.00800           0
     18494 TIP3     3392     TIP3     OH2      OT      -0.834000       15.9994           0
     18495 TIP3     3392     TIP3     H1       HT       0.417000       1.00800           0
     18496 TIP3     3392     TIP3     H2       HT       0.417000       1.00800           0
     18497 TIP3     3393     TIP3     OH2      OT      -0.834000       15.9994           0
     18498 TIP3     3393     TIP3     H1       HT       0.417000       1.00800           0
     18499 TIP3     3393     TIP3     H2       HT       0.417000       1.00800           0
     18500 TIP3     3394     TIP3     OH2      OT      -0.834000       15.9994           0
     18501 TIP3     3394     TIP3     H1       HT       0.417000       1.00800           0
     18502 TIP3     3394     TIP3     H2       HT       0.417000       1.00800           0
     18503 TIP3     3395     TIP3     OH2      OT      -0.834000       15.9994           0
     18504 TIP3     3395     TIP3     H1       HT       0.417000       1.00800           0
     18505 TIP3     3395     TIP3     H2       HT       0.417000       1.00800           0
     18506 TIP3     3396     TIP3     OH2      OT      -0.834000       15.9994           0
     18507 TIP3     3396     TIP3     H1       HT       0.417000       1.00800           0
     18508 TIP3     3396     TIP3     H2       HT       0.417000       1.00800           0
     18509 TIP3     3397     TIP3     OH2      OT      -0.834000       15.9994           0
     18510 TIP3     3397     TIP3     H1       HT       0.417000       1.00800           0
     18511 TIP3     3397     TIP3     H2       HT       0.417000       1.00800           0
     18512 TIP3     3398     TIP3     OH2      OT      -0.834000       15.9994           0
     18513 TIP3     3398     TIP3     H1       HT       0.417000       1.00800           0
     18514 TIP3     3398     TIP3     H2       HT       0.417000       1.00800           0
     18515 TIP3     3399     TIP3     OH2      OT      -0.834000       15.9994           0
     18516 TIP3     3399     TIP3     H1       HT       0.417000       1.00800           0
     18517 TIP3     3399     TIP3     H2       HT       0.417000       1.00800           0
     18518 TIP3     3400     TIP3     OH2      OT      -0.834000       15.9994           0
     18519 TIP3     3400     TIP3     H1       HT       0.417000       1.00800           0
     18520 TIP3     3400     TIP3     H2       HT       0.417000       1.00800           0
     18521 TIP3     3401     TIP3     OH2      OT      -0.834000       15.9994           0
     18522 TIP3     3401     TIP3     H1       HT       0.417000       1.00800           0
     18523 TIP3     3401     TIP3     H2       HT       0.417000       1.00800           0
     18524 TIP3     3402     TIP3     OH2      OT      -0.834000       15.9994           0
     18525 TIP3     3402     TIP3     H1       HT       0.417000       1.00800           0
     18526 TIP3     3402     TIP3     H2       HT       0.417000       1.00800           0
     18527 TIP3     3403     TIP3     OH2      OT      -0.834000       15.9994           0
     18528 TIP3     3403     TIP3     H1       HT       0.417000       1.00800           0
     18529 TIP3     3403     TIP3     H2       HT       0.417000       1.00800           0
     18530 TIP3     3404     TIP3     OH2      OT      -0.834000       15.9994           0
     18531 TIP3     3404     TIP3     H1       HT       0.417000       1.00800           0
     18532 TIP3     3404     TIP3     H2       HT       0.417000       1.00800           0
     18533 TIP3     3405     TIP3     OH2      OT      -0.834000       15.9994           0
     18534 TIP3     3405     TIP3     H1       HT       0.417000       1.00800           0
     18535 TIP3     3405     TIP3     H2       HT       0.417000       1.00800           0
     18536 TIP3     3406     TIP3     OH2      OT      -0.834000       15.9994           0
     18537 TIP3     3406     TIP3     H1       HT       0.417000       1.00800           0
     18538 TIP3     3406     TIP3     H2       HT       0.417000       1.00800           0
     18539 TIP3     3407     TIP3     OH2      OT      -0.834000       15.9994           0
     18540 TIP3     3407     TIP3     H1       HT       0.417000       1.00800           0
     18541 TIP3     3407     TIP3     H2       HT       0.417000       1.00800           0
     18542 TIP3     3408     TIP3     OH2      OT      -0.834000       15.9994           0
     18543 TIP3     3408     TIP3     H1       HT       0.417000       1.00800           0
     18544 TIP3     3408     TIP3     H2       HT       0.417000       1.00800           0
     18545 TIP3     3409     TIP3     OH2      OT      -0.834000       15.9994           0
     18546 TIP3     3409     TIP3     H1       HT       0.417000       1.00800           0
     18547 TIP3     3409     TIP3     H2       HT       0.417000       1.00800           0
     18548 TIP3     3410     TIP3     OH2      OT      -0.834000       15.9994           0
     18549 TIP3     3410     TIP3     H1       HT       0.417000       1.00800           0
     18550 TIP3     3410     TIP3     H2       HT       0.417000       1.00800           0
     18551 TIP3     3411     TIP3     OH2      OT      -0.834000       15.9994           0
     18552 TIP3     3411     TIP3     H1       HT       0.417000       1.00800           0
     18553 TIP3     3411     TIP3     H2       HT       0.417000       1.00800           0
     18554 TIP3     3412     TIP3     OH2      OT      -0.834000       15.9994           0
     18555 TIP3     3412     TIP3     H1       HT       0.417000       1.00800           0
     18556 TIP3     3412     TIP3     H2       HT       0.417000       1.00800           0
     18557 TIP3     3413     TIP3     OH2      OT      -0.834000       15.9994           0
     18558 TIP3     3413     TIP3     H1       HT       0.417000       1.00800           0
     18559 TIP3     3413     TIP3     H2       HT       0.417000       1.00800           0
     18560 TIP3     3414     TIP3     OH2      OT      -0.834000       15.9994           0
     18561 TIP3     3414     TIP3     H1       HT       0.417000       1.00800           0
     18562 TIP3     3414     TIP3     H2       HT       0.417000       1.00800           0
     18563 TIP3     3415     TIP3     OH2      OT      -0.834000       15.9994           0
     18564 TIP3     3415     TIP3     H1       HT       0.417000       1.00800           0
     18565 TIP3     3415     TIP3     H2       HT       0.417000       1.00800           0
     18566 TIP3     3416     TIP3     OH2      OT      -0.834000       15.9994           0
     18567 TIP3     3416     TIP3     H1       HT       0.417000       1.00800           0
     18568 TIP3     3416     TIP3     H2       HT       0.417000       1.00800           0
     18569 TIP3     3417     TIP3     OH2      OT      -0.834000       15.9994           0
     18570 TIP3     3417     TIP3     H1       HT       0.417000       1.00800           0
     18571 TIP3     3417     TIP3     H2       HT       0.417000       1.00800           0
     18572 TIP3     3418     TIP3     OH2      OT      -0.834000       15.9994           0
     18573 TIP3     3418     TIP3     H1       HT       0.417000       1.00800           0
     18574 TIP3     3418     TIP3     H2       HT       0.417000       1.00800           0
     18575 TIP3     3419     TIP3     OH2      OT      -0.834000       15.9994           0
     18576 TIP3     3419     TIP3     H1       HT       0.417000       1.00800           0
     18577 TIP3     3419     TIP3     H2       HT       0.417000       1.00800           0
     18578 TIP3     3420     TIP3     OH2      OT      -0.834000       15.9994           0
     18579 TIP3     3420     TIP3     H1       HT       0.417000       1.00800           0
     18580 TIP3     3420     TIP3     H2       HT       0.417000       1.00800           0
     18581 TIP3     3421     TIP3     OH2      OT      -0.834000       15.9994           0
     18582 TIP3     3421     TIP3     H1       HT       0.417000       1.00800           0
     18583 TIP3     3421     TIP3     H2       HT       0.417000       1.00800           0
     18584 TIP3     3422     TIP3     OH2      OT      -0.834000       15.9994           0
     18585 TIP3     3422     TIP3     H1       HT       0.417000       1.00800           0
     18586 TIP3     3422     TIP3     H2       HT       0.417000       1.00800           0
     18587 TIP3     3423     TIP3     OH2      OT      -0.834000       15.9994           0
     18588 TIP3     3423     TIP3     H1       HT       0.417000       1.00800           0
     18589 TIP3     3423     TIP3     H2       HT       0.417000       1.00800           0
     18590 TIP3     3424     TIP3     OH2      OT      -0.834000       15.9994           0
     18591 TIP3     3424     TIP3     H1       HT       0.417000       1.00800           0
     18592 TIP3     3424     TIP3     H2       HT       0.417000       1.00800           0
     18593 TIP3     3425     TIP3     OH2      OT      -0.834000       15.9994           0
     18594 TIP3     3425     TIP3     H1       HT       0.417000       1.00800           0
     18595 TIP3     3425     TIP3     H2       HT       0.417000       1.00800           0
     18596 TIP3     3426     TIP3     OH2      OT      -0.834000       15.9994           0
     18597 TIP3     3426     TIP3     H1       HT       0.417000       1.00800           0
     18598 TIP3     3426     TIP3     H2       HT       0.417000       1.00800           0
     18599 TIP3     3427     TIP3     OH2      OT      -0.834000       15.9994           0
     18600 TIP3     3427     TIP3     H1       HT       0.417000       1.00800           0
     18601 TIP3     3427     TIP3     H2       HT       0.417000       1.00800           0
     18602 TIP3     3428     TIP3     OH2      OT      -0.834000       15.9994           0
     18603 TIP3     3428     TIP3     H1       HT       0.417000       1.00800           0
     18604 TIP3     3428     TIP3     H2       HT       0.417000       1.00800           0
     18605 TIP3     3429     TIP3     OH2      OT      -0.834000       15.9994           0
     18606 TIP3     3429     TIP3     H1       HT       0.417000       1.00800           0
     18607 TIP3     3429     TIP3     H2       HT       0.417000       1.00800           0
     18608 TIP3     3430     TIP3     OH2      OT      -0.834000       15.9994           0
     18609 TIP3     3430     TIP3     H1       HT       0.417000       1.00800           0
     18610 TIP3     3430     TIP3     H2       HT       0.417000       1.00800           0
     18611 TIP3     3431     TIP3     OH2      OT      -0.834000       15.9994           0
     18612 TIP3     3431     TIP3     H1       HT       0.417000       1.00800           0
     18613 TIP3     3431     TIP3     H2       HT       0.417000       1.00800           0
     18614 TIP3     3432     TIP3     OH2      OT      -0.834000       15.9994           0
     18615 TIP3     3432     TIP3     H1       HT       0.417000       1.00800           0
     18616 TIP3     3432     TIP3     H2       HT       0.417000       1.00800           0
     18617 TIP3     3433     TIP3     OH2      OT      -0.834000       15.9994           0
     18618 TIP3     3433     TIP3     H1       HT       0.417000       1.00800           0
     18619 TIP3     3433     TIP3     H2       HT       0.417000       1.00800           0
     18620 TIP3     3434     TIP3     OH2      OT      -0.834000       15.9994           0
     18621 TIP3     3434     TIP3     H1       HT       0.417000       1.00800           0
     18622 TIP3     3434     TIP3     H2       HT       0.417000       1.00800           0
     18623 TIP3     3435     TIP3     OH2      OT      -0.834000       15.9994           0
     18624 TIP3     3435     TIP3     H1       HT       0.417000       1.00800           0
     18625 TIP3     3435     TIP3     H2       HT       0.417000       1.00800           0
     18626 TIP3     3436     TIP3     OH2      OT      -0.834000       15.9994           0
     18627 TIP3     3436     TIP3     H1       HT       0.417000       1.00800           0
     18628 TIP3     3436     TIP3     H2       HT       0.417000       1.00800           0
     18629 TIP3     3437     TIP3     OH2      OT      -0.834000       15.9994           0
     18630 TIP3     3437     TIP3     H1       HT       0.417000       1.00800           0
     18631 TIP3     3437     TIP3     H2       HT       0.417000       1.00800           0
     18632 TIP3     3438     TIP3     OH2      OT      -0.834000       15.9994           0
     18633 TIP3     3438     TIP3     H1       HT       0.417000       1.00800           0
     18634 TIP3     3438     TIP3     H2       HT       0.417000       1.00800           0
     18635 TIP3     3439     TIP3     OH2      OT      -0.834000       15.9994           0
     18636 TIP3     3439     TIP3     H1       HT       0.417000       1.00800           0
     18637 TIP3     3439     TIP3     H2       HT       0.417000       1.00800           0
     18638 TIP3     3440     TIP3     OH2      OT      -0.834000       15.9994           0
     18639 TIP3     3440     TIP3     H1       HT       0.417000       1.00800           0
     18640 TIP3     3440     TIP3     H2       HT       0.417000       1.00800           0
     18641 TIP3     3441     TIP3     OH2      OT      -0.834000       15.9994           0
     18642 TIP3     3441     TIP3     H1       HT       0.417000       1.00800           0
     18643 TIP3     3441     TIP3     H2       HT       0.417000       1.00800           0
     18644 TIP3     3442     TIP3     OH2      OT      -0.834000       15.9994           0
     18645 TIP3     3442     TIP3     H1       HT       0.417000       1.00800           0
     18646 TIP3     3442     TIP3     H2       HT       0.417000       1.00800           0
     18647 TIP3     3443     TIP3     OH2      OT      -0.834000       15.9994           0
     18648 TIP3     3443     TIP3     H1       HT       0.417000       1.00800           0
     18649 TIP3     3443     TIP3     H2       HT       0.417000       1.00800           0
     18650 TIP3     3444     TIP3     OH2      OT      -0.834000       15.9994           0
     18651 TIP3     3444     TIP3     H1       HT       0.417000       1.00800           0
     18652 TIP3     3444     TIP3     H2       HT       0.417000       1.00800           0
     18653 TIP3     3445     TIP3     OH2      OT      -0.834000       15.9994           0
     18654 TIP3     3445     TIP3     H1       HT       0.417000       1.00800           0
     18655 TIP3     3445     TIP3     H2       HT       0.417000       1.00800           0
     18656 TIP3     3446     TIP3     OH2      OT      -0.834000       15.9994           0
     18657 TIP3     3446     TIP3     H1       HT       0.417000       1.00800           0
     18658 TIP3     3446     TIP3     H2       HT       0.417000       1.00800           0
     18659 TIP3     3447     TIP3     OH2      OT      -0.834000       15.9994           0
     18660 TIP3     3447     TIP3     H1       HT       0.417000       1.00800           0
     18661 TIP3     3447     TIP3     H2       HT       0.417000       1.00800           0
     18662 TIP3     3448     TIP3     OH2      OT      -0.834000       15.9994           0
     18663 TIP3     3448     TIP3     H1       HT       0.417000       1.00800           0
     18664 TIP3     3448     TIP3     H2       HT       0.417000       1.00800           0
     18665 TIP3     3449     TIP3     OH2      OT      -0.834000       15.9994           0
     18666 TIP3     3449     TIP3     H1       HT       0.417000       1.00800           0
     18667 TIP3     3449     TIP3     H2       HT       0.417000       1.00800           0
     18668 TIP3     3450     TIP3     OH2      OT      -0.834000       15.9994           0
     18669 TIP3     3450     TIP3     H1       HT       0.417000       1.00800           0
     18670 TIP3     3450     TIP3     H2       HT       0.417000       1.00800           0
     18671 TIP3     3451     TIP3     OH2      OT      -0.834000       15.9994           0
     18672 TIP3     3451     TIP3     H1       HT       0.417000       1.00800           0
     18673 TIP3     3451     TIP3     H2       HT       0.417000       1.00800           0
     18674 TIP3     3452     TIP3     OH2      OT      -0.834000       15.9994           0
     18675 TIP3     3452     TIP3     H1       HT       0.417000       1.00800           0
     18676 TIP3     3452     TIP3     H2       HT       0.417000       1.00800           0
     18677 TIP3     3453     TIP3     OH2      OT      -0.834000       15.9994           0
     18678 TIP3     3453     TIP3     H1       HT       0.417000       1.00800           0
     18679 TIP3     3453     TIP3     H2       HT       0.417000       1.00800           0
     18680 TIP3     3454     TIP3     OH2      OT      -0.834000       15.9994           0
     18681 TIP3     3454     TIP3     H1       HT       0.417000       1.00800           0
     18682 TIP3     3454     TIP3     H2       HT       0.417000       1.00800           0
     18683 TIP3     3455     TIP3     OH2      OT      -0.834000       15.9994           0
     18684 TIP3     3455     TIP3     H1       HT       0.417000       1.00800           0
     18685 TIP3     3455     TIP3     H2       HT       0.417000       1.00800           0
     18686 TIP3     3456     TIP3     OH2      OT      -0.834000       15.9994           0
     18687 TIP3     3456     TIP3     H1       HT       0.417000       1.00800           0
     18688 TIP3     3456     TIP3     H2       HT       0.417000       1.00800           0
     18689 TIP3     3457     TIP3     OH2      OT      -0.834000       15.9994           0
     18690 TIP3     3457     TIP3     H1       HT       0.417000       1.00800           0
     18691 TIP3     3457     TIP3     H2       HT       0.417000       1.00800           0
     18692 TIP3     3458     TIP3     OH2      OT      -0.834000       15.9994           0
     18693 TIP3     3458     TIP3     H1       HT       0.417000       1.00800           0
     18694 TIP3     3458     TIP3     H2       HT       0.417000       1.00800           0
     18695 TIP3     3459     TIP3     OH2      OT      -0.834000       15.9994           0
     18696 TIP3     3459     TIP3     H1       HT       0.417000       1.00800           0
     18697 TIP3     3459     TIP3     H2       HT       0.417000       1.00800           0
     18698 TIP3     3460     TIP3     OH2      OT      -0.834000       15.9994           0
     18699 TIP3     3460     TIP3     H1       HT       0.417000       1.00800           0
     18700 TIP3     3460     TIP3     H2       HT       0.417000       1.00800           0
     18701 TIP3     3461     TIP3     OH2      OT      -0.834000       15.9994           0
     18702 TIP3     3461     TIP3     H1       HT       0.417000       1.00800           0
     18703 TIP3     3461     TIP3     H2       HT       0.417000       1.00800           0
     18704 TIP3     3462     TIP3     OH2      OT      -0.834000       15.9994           0
     18705 TIP3     3462     TIP3     H1       HT       0.417000       1.00800           0
     18706 TIP3     3462     TIP3     H2       HT       0.417000       1.00800           0
     18707 TIP3     3463     TIP3     OH2      OT      -0.834000       15.9994           0
     18708 TIP3     3463     TIP3     H1       HT       0.417000       1.00800           0
     18709 TIP3     3463     TIP3     H2       HT       0.417000       1.00800           0
     18710 TIP3     3464     TIP3     OH2      OT      -0.834000       15.9994           0
     18711 TIP3     3464     TIP3     H1       HT       0.417000       1.00800           0
     18712 TIP3     3464     TIP3     H2       HT       0.417000       1.00800           0
     18713 TIP3     3465     TIP3     OH2      OT      -0.834000       15.9994           0
     18714 TIP3     3465     TIP3     H1       HT       0.417000       1.00800           0
     18715 TIP3     3465     TIP3     H2       HT       0.417000       1.00800           0
     18716 TIP3     3466     TIP3     OH2      OT      -0.834000       15.9994           0
     18717 TIP3     3466     TIP3     H1       HT       0.417000       1.00800           0
     18718 TIP3     3466     TIP3     H2       HT       0.417000       1.00800           0
     18719 TIP3     3467     TIP3     OH2      OT      -0.834000       15.9994           0
     18720 TIP3     3467     TIP3     H1       HT       0.417000       1.00800           0
     18721 TIP3     3467     TIP3     H2       HT       0.417000       1.00800           0
     18722 TIP3     3468     TIP3     OH2      OT      -0.834000       15.9994           0
     18723 TIP3     3468     TIP3     H1       HT       0.417000       1.00800           0
     18724 TIP3     3468     TIP3     H2       HT       0.417000       1.00800           0
     18725 TIP3     3469     TIP3     OH2      OT      -0.834000       15.9994           0
     18726 TIP3     3469     TIP3     H1       HT       0.417000       1.00800           0
     18727 TIP3     3469     TIP3     H2       HT       0.417000       1.00800           0
     18728 TIP3     3470     TIP3     OH2      OT      -0.834000       15.9994           0
     18729 TIP3     3470     TIP3     H1       HT       0.417000       1.00800           0
     18730 TIP3     3470     TIP3     H2       HT       0.417000       1.00800           0
     18731 TIP3     3471     TIP3     OH2      OT      -0.834000       15.9994           0
     18732 TIP3     3471     TIP3     H1       HT       0.417000       1.00800           0
     18733 TIP3     3471     TIP3     H2       HT       0.417000       1.00800           0
     18734 TIP3     3472     TIP3     OH2      OT      -0.834000       15.9994           0
     18735 TIP3     3472     TIP3     H1       HT       0.417000       1.00800           0
     18736 TIP3     3472     TIP3     H2       HT       0.417000       1.00800           0
     18737 TIP3     3473     TIP3     OH2      OT      -0.834000       15.9994           0
     18738 TIP3     3473     TIP3     H1       HT       0.417000       1.00800           0
     18739 TIP3     3473     TIP3     H2       HT       0.417000       1.00800           0
     18740 TIP3     3474     TIP3     OH2      OT      -0.834000       15.9994           0
     18741 TIP3     3474     TIP3     H1       HT       0.417000       1.00800           0
     18742 TIP3     3474     TIP3     H2       HT       0.417000       1.00800           0
     18743 TIP3     3475     TIP3     OH2      OT      -0.834000       15.9994           0
     18744 TIP3     3475     TIP3     H1       HT       0.417000       1.00800           0
     18745 TIP3     3475     TIP3     H2       HT       0.417000       1.00800           0
     18746 TIP3     3476     TIP3     OH2      OT      -0.834000       15.9994           0
     18747 TIP3     3476     TIP3     H1       HT       0.417000       1.00800           0
     18748 TIP3     3476     TIP3     H2       HT       0.417000       1.00800           0
     18749 TIP3     3477     TIP3     OH2      OT      -0.834000       15.9994           0
     18750 TIP3     3477     TIP3     H1       HT       0.417000       1.00800           0
     18751 TIP3     3477     TIP3     H2       HT       0.417000       1.00800           0
     18752 TIP3     3478     TIP3     OH2      OT      -0.834000       15.9994           0
     18753 TIP3     3478     TIP3     H1       HT       0.417000       1.00800           0
     18754 TIP3     3478     TIP3     H2       HT       0.417000       1.00800           0
     18755 TIP3     3479     TIP3     OH2      OT      -0.834000       15.9994           0
     18756 TIP3     3479     TIP3     H1       HT       0.417000       1.00800           0
     18757 TIP3     3479     TIP3     H2       HT       0.417000       1.00800           0
     18758 TIP3     3480     TIP3     OH2      OT      -0.834000       15.9994           0
     18759 TIP3     3480     TIP3     H1       HT       0.417000       1.00800           0
     18760 TIP3     3480     TIP3     H2       HT       0.417000       1.00800           0
     18761 TIP3     3481     TIP3     OH2      OT      -0.834000       15.9994           0
     18762 TIP3     3481     TIP3     H1       HT       0.417000       1.00800           0
     18763 TIP3     3481     TIP3     H2       HT       0.417000       1.00800           0
     18764 TIP3     3482     TIP3     OH2      OT      -0.834000       15.9994           0
     18765 TIP3     3482     TIP3     H1       HT       0.417000       1.00800           0
     18766 TIP3     3482     TIP3     H2       HT       0.417000       1.00800           0
     18767 TIP3     3483     TIP3     OH2      OT      -0.834000       15.9994           0
     18768 TIP3     3483     TIP3     H1       HT       0.417000       1.00800           0
     18769 TIP3     3483     TIP3     H2       HT       0.417000       1.00800           0
     18770 TIP3     3484     TIP3     OH2      OT      -0.834000       15.9994           0
     18771 TIP3     3484     TIP3     H1       HT       0.417000       1.00800           0
     18772 TIP3     3484     TIP3     H2       HT       0.417000       1.00800           0
     18773 TIP3     3485     TIP3     OH2      OT      -0.834000       15.9994           0
     18774 TIP3     3485     TIP3     H1       HT       0.417000       1.00800           0
     18775 TIP3     3485     TIP3     H2       HT       0.417000       1.00800           0
     18776 TIP3     3486     TIP3     OH2      OT      -0.834000       15.9994           0
     18777 TIP3     3486     TIP3     H1       HT       0.417000       1.00800           0
     18778 TIP3     3486     TIP3     H2       HT       0.417000       1.00800           0
     18779 TIP3     3487     TIP3     OH2      OT      -0.834000       15.9994           0
     18780 TIP3     3487     TIP3     H1       HT       0.417000       1.00800           0
     18781 TIP3     3487     TIP3     H2       HT       0.417000       1.00800           0
     18782 TIP3     3488     TIP3     OH2      OT      -0.834000       15.9994           0
     18783 TIP3     3488     TIP3     H1       HT       0.417000       1.00800           0
     18784 TIP3     3488     TIP3     H2       HT       0.417000       1.00800           0
     18785 TIP3     3489     TIP3     OH2      OT      -0.834000       15.9994           0
     18786 TIP3     3489     TIP3     H1       HT       0.417000       1.00800           0
     18787 TIP3     3489     TIP3     H2       HT       0.417000       1.00800           0
     18788 TIP3     3490     TIP3     OH2      OT      -0.834000       15.9994           0
     18789 TIP3     3490     TIP3     H1       HT       0.417000       1.00800           0
     18790 TIP3     3490     TIP3     H2       HT       0.417000       1.00800           0
     18791 TIP3     3491     TIP3     OH2      OT      -0.834000       15.9994           0
     18792 TIP3     3491     TIP3     H1       HT       0.417000       1.00800           0
     18793 TIP3     3491     TIP3     H2       HT       0.417000       1.00800           0
     18794 TIP3     3492     TIP3     OH2      OT      -0.834000       15.9994           0
     18795 TIP3     3492     TIP3     H1       HT       0.417000       1.00800           0
     18796 TIP3     3492     TIP3     H2       HT       0.417000       1.00800           0
     18797 TIP3     3493     TIP3     OH2      OT      -0.834000       15.9994           0
     18798 TIP3     3493     TIP3     H1       HT       0.417000       1.00800           0
     18799 TIP3     3493     TIP3     H2       HT       0.417000       1.00800           0
     18800 TIP3     3494     TIP3     OH2      OT      -0.834000       15.9994           0
     18801 TIP3     3494     TIP3     H1       HT       0.417000       1.00800           0
     18802 TIP3     3494     TIP3     H2       HT       0.417000       1.00800           0
     18803 TIP3     3495     TIP3     OH2      OT      -0.834000       15.9994           0
     18804 TIP3     3495     TIP3     H1       HT       0.417000       1.00800           0
     18805 TIP3     3495     TIP3     H2       HT       0.417000       1.00800           0
     18806 TIP3     3496     TIP3     OH2      OT      -0.834000       15.9994           0
     18807 TIP3     3496     TIP3     H1       HT       0.417000       1.00800           0
     18808 TIP3     3496     TIP3     H2       HT       0.417000       1.00800           0
     18809 TIP3     3497     TIP3     OH2      OT      -0.834000       15.9994           0
     18810 TIP3     3497     TIP3     H1       HT       0.417000       1.00800           0
     18811 TIP3     3497     TIP3     H2       HT       0.417000       1.00800           0
     18812 TIP3     3498     TIP3     OH2      OT      -0.834000       15.9994           0
     18813 TIP3     3498     TIP3     H1       HT       0.417000       1.00800           0
     18814 TIP3     3498     TIP3     H2       HT       0.417000       1.00800           0
     18815 TIP3     3499     TIP3     OH2      OT      -0.834000       15.9994           0
     18816 TIP3     3499     TIP3     H1       HT       0.417000       1.00800           0
     18817 TIP3     3499     TIP3     H2       HT       0.417000       1.00800           0
     18818 TIP3     3500     TIP3     OH2      OT      -0.834000       15.9994           0
     18819 TIP3     3500     TIP3     H1       HT       0.417000       1.00800           0
     18820 TIP3     3500     TIP3     H2       HT       0.417000       1.00800           0
     18821 TIP3     3501     TIP3     OH2      OT      -0.834000       15.9994           0
     18822 TIP3     3501     TIP3     H1       HT       0.417000       1.00800           0
     18823 TIP3     3501     TIP3     H2       HT       0.417000       1.00800           0
     18824 TIP3     3502     TIP3     OH2      OT      -0.834000       15.9994           0
     18825 TIP3     3502     TIP3     H1       HT       0.417000       1.00800           0
     18826 TIP3     3502     TIP3     H2       HT       0.417000       1.00800           0
     18827 TIP3     3503     TIP3     OH2      OT      -0.834000       15.9994           0
     18828 TIP3     3503     TIP3     H1       HT       0.417000       1.00800           0
     18829 TIP3     3503     TIP3     H2       HT       0.417000       1.00800           0
     18830 TIP3     3504     TIP3     OH2      OT      -0.834000       15.9994           0
     18831 TIP3     3504     TIP3     H1       HT       0.417000       1.00800           0
     18832 TIP3     3504     TIP3     H2       HT       0.417000       1.00800           0
     18833 TIP3     3505     TIP3     OH2      OT      -0.834000       15.9994           0
     18834 TIP3     3505     TIP3     H1       HT       0.417000       1.00800           0
     18835 TIP3     3505     TIP3     H2       HT       0.417000       1.00800           0
     18836 TIP3     3506     TIP3     OH2      OT      -0.834000       15.9994           0
     18837 TIP3     3506     TIP3     H1       HT       0.417000       1.00800           0
     18838 TIP3     3506     TIP3     H2       HT       0.417000       1.00800           0
     18839 TIP3     3507     TIP3     OH2      OT      -0.834000       15.9994           0
     18840 TIP3     3507     TIP3     H1       HT       0.417000       1.00800           0
     18841 TIP3     3507     TIP3     H2       HT       0.417000       1.00800           0
     18842 TIP3     3508     TIP3     OH2      OT      -0.834000       15.9994           0
     18843 TIP3     3508     TIP3     H1       HT       0.417000       1.00800           0
     18844 TIP3     3508     TIP3     H2       HT       0.417000       1.00800           0
     18845 TIP3     3509     TIP3     OH2      OT      -0.834000       15.9994           0
     18846 TIP3     3509     TIP3     H1       HT       0.417000       1.00800           0
     18847 TIP3     3509     TIP3     H2       HT       0.417000       1.00800           0
     18848 TIP3     3510     TIP3     OH2      OT      -0.834000       15.9994           0
     18849 TIP3     3510     TIP3     H1       HT       0.417000       1.00800           0
     18850 TIP3     3510     TIP3     H2       HT       0.417000       1.00800           0
     18851 TIP3     3511     TIP3     OH2      OT      -0.834000       15.9994           0
     18852 TIP3     3511     TIP3     H1       HT       0.417000       1.00800           0
     18853 TIP3     3511     TIP3     H2       HT       0.417000       1.00800           0
     18854 TIP3     3512     TIP3     OH2      OT      -0.834000       15.9994           0
     18855 TIP3     3512     TIP3     H1       HT       0.417000       1.00800           0
     18856 TIP3     3512     TIP3     H2       HT       0.417000       1.00800           0
     18857 TIP3     3513     TIP3     OH2      OT      -0.834000       15.9994           0
     18858 TIP3     3513     TIP3     H1       HT       0.417000       1.00800           0
     18859 TIP3     3513     TIP3     H2       HT       0.417000       1.00800           0
     18860 TIP3     3514     TIP3     OH2      OT      -0.834000       15.9994           0
     18861 TIP3     3514     TIP3     H1       HT       0.417000       1.00800           0
     18862 TIP3     3514     TIP3     H2       HT       0.417000       1.00800           0
     18863 TIP3     3515     TIP3     OH2      OT      -0.834000       15.9994           0
     18864 TIP3     3515     TIP3     H1       HT       0.417000       1.00800           0
     18865 TIP3     3515     TIP3     H2       HT       0.417000       1.00800           0
     18866 TIP3     3516     TIP3     OH2      OT      -0.834000       15.9994           0
     18867 TIP3     3516     TIP3     H1       HT       0.417000       1.00800           0
     18868 TIP3     3516     TIP3     H2       HT       0.417000       1.00800           0
     18869 TIP3     3517     TIP3     OH2      OT      -0.834000       15.9994           0
     18870 TIP3     3517     TIP3     H1       HT       0.417000       1.00800           0
     18871 TIP3     3517     TIP3     H2       HT       0.417000       1.00800           0
     18872 TIP3     3518     TIP3     OH2      OT      -0.834000       15.9994           0
     18873 TIP3     3518     TIP3     H1       HT       0.417000       1.00800           0
     18874 TIP3     3518     TIP3     H2       HT       0.417000       1.00800           0
     18875 TIP3     3519     TIP3     OH2      OT      -0.834000       15.9994           0
     18876 TIP3     3519     TIP3     H1       HT       0.417000       1.00800           0
     18877 TIP3     3519     TIP3     H2       HT       0.417000       1.00800           0
     18878 TIP3     3520     TIP3     OH2      OT      -0.834000       15.9994           0
     18879 TIP3     3520     TIP3     H1       HT       0.417000       1.00800           0
     18880 TIP3     3520     TIP3     H2       HT       0.417000       1.00800           0
     18881 TIP3     3521     TIP3     OH2      OT      -0.834000       15.9994           0
     18882 TIP3     3521     TIP3     H1       HT       0.417000       1.00800           0
     18883 TIP3     3521     TIP3     H2       HT       0.417000       1.00800           0
     18884 TIP3     3522     TIP3     OH2      OT      -0.834000       15.9994           0
     18885 TIP3     3522     TIP3     H1       HT       0.417000       1.00800           0
     18886 TIP3     3522     TIP3     H2       HT       0.417000       1.00800           0
     18887 TIP3     3523     TIP3     OH2      OT      -0.834000       15.9994           0
     18888 TIP3     3523     TIP3     H1       HT       0.417000       1.00800           0
     18889 TIP3     3523     TIP3     H2       HT       0.417000       1.00800           0
     18890 TIP3     3524     TIP3     OH2      OT      -0.834000       15.9994           0
     18891 TIP3     3524     TIP3     H1       HT       0.417000       1.00800           0
     18892 TIP3     3524     TIP3     H2       HT       0.417000       1.00800           0
     18893 TIP3     3525     TIP3     OH2      OT      -0.834000       15.9994           0
     18894 TIP3     3525     TIP3     H1       HT       0.417000       1.00800           0
     18895 TIP3     3525     TIP3     H2       HT       0.417000       1.00800           0
     18896 TIP3     3526     TIP3     OH2      OT      -0.834000       15.9994           0
     18897 TIP3     3526     TIP3     H1       HT       0.417000       1.00800           0
     18898 TIP3     3526     TIP3     H2       HT       0.417000       1.00800           0
     18899 TIP3     3527     TIP3     OH2      OT      -0.834000       15.9994           0
     18900 TIP3     3527     TIP3     H1       HT       0.417000       1.00800           0
     18901 TIP3     3527     TIP3     H2       HT       0.417000       1.00800           0
     18902 TIP3     3528     TIP3     OH2      OT      -0.834000       15.9994           0
     18903 TIP3     3528     TIP3     H1       HT       0.417000       1.00800           0
     18904 TIP3     3528     TIP3     H2       HT       0.417000       1.00800           0
     18905 TIP3     3529     TIP3     OH2      OT      -0.834000       15.9994           0
     18906 TIP3     3529     TIP3     H1       HT       0.417000       1.00800           0
     18907 TIP3     3529     TIP3     H2       HT       0.417000       1.00800           0
     18908 TIP3     3530     TIP3     OH2      OT      -0.834000       15.9994           0
     18909 TIP3     3530     TIP3     H1       HT       0.417000       1.00800           0
     18910 TIP3     3530     TIP3     H2       HT       0.417000       1.00800           0
     18911 TIP3     3531     TIP3     OH2      OT      -0.834000       15.9994           0
     18912 TIP3     3531     TIP3     H1       HT       0.417000       1.00800           0
     18913 TIP3     3531     TIP3     H2       HT       0.417000       1.00800           0
     18914 TIP3     3532     TIP3     OH2      OT      -0.834000       15.9994           0
     18915 TIP3     3532     TIP3     H1       HT       0.417000       1.00800           0
     18916 TIP3     3532     TIP3     H2       HT       0.417000       1.00800           0
     18917 TIP3     3533     TIP3     OH2      OT      -0.834000       15.9994           0
     18918 TIP3     3533     TIP3     H1       HT       0.417000       1.00800           0
     18919 TIP3     3533     TIP3     H2       HT       0.417000       1.00800           0
     18920 TIP3     3534     TIP3     OH2      OT      -0.834000       15.9994           0
     18921 TIP3     3534     TIP3     H1       HT       0.417000       1.00800           0
     18922 TIP3     3534     TIP3     H2       HT       0.417000       1.00800           0
     18923 TIP3     3535     TIP3     OH2      OT      -0.834000       15.9994           0
     18924 TIP3     3535     TIP3     H1       HT       0.417000       1.00800           0
     18925 TIP3     3535     TIP3     H2       HT       0.417000       1.00800           0
     18926 TIP3     3536     TIP3     OH2      OT      -0.834000       15.9994           0
     18927 TIP3     3536     TIP3     H1       HT       0.417000       1.00800           0
     18928 TIP3     3536     TIP3     H2       HT       0.417000       1.00800           0
     18929 TIP3     3537     TIP3     OH2      OT      -0.834000       15.9994           0
     18930 TIP3     3537     TIP3     H1       HT       0.417000       1.00800           0
     18931 TIP3     3537     TIP3     H2       HT       0.417000       1.00800           0
     18932 TIP3     3538     TIP3     OH2      OT      -0.834000       15.9994           0
     18933 TIP3     3538     TIP3     H1       HT       0.417000       1.00800           0
     18934 TIP3     3538     TIP3     H2       HT       0.417000       1.00800           0
     18935 TIP3     3539     TIP3     OH2      OT      -0.834000       15.9994           0
     18936 TIP3     3539     TIP3     H1       HT       0.417000       1.00800           0
     18937 TIP3     3539     TIP3     H2       HT       0.417000       1.00800           0
     18938 TIP3     3540     TIP3     OH2      OT      -0.834000       15.9994           0
     18939 TIP3     3540     TIP3     H1       HT       0.417000       1.00800           0
     18940 TIP3     3540     TIP3     H2       HT       0.417000       1.00800           0
     18941 TIP3     3541     TIP3     OH2      OT      -0.834000       15.9994           0
     18942 TIP3     3541     TIP3     H1       HT       0.417000       1.00800           0
     18943 TIP3     3541     TIP3     H2       HT       0.417000       1.00800           0
     18944 TIP3     3542     TIP3     OH2      OT      -0.834000       15.9994           0
     18945 TIP3     3542     TIP3     H1       HT       0.417000       1.00800           0
     18946 TIP3     3542     TIP3     H2       HT       0.417000       1.00800           0
     18947 TIP3     3543     TIP3     OH2      OT      -0.834000       15.9994           0
     18948 TIP3     3543     TIP3     H1       HT       0.417000       1.00800           0
     18949 TIP3     3543     TIP3     H2       HT       0.417000       1.00800           0
     18950 TIP3     3544     TIP3     OH2      OT      -0.834000       15.9994           0
     18951 TIP3     3544     TIP3     H1       HT       0.417000       1.00800           0
     18952 TIP3     3544     TIP3     H2       HT       0.417000       1.00800           0
     18953 TIP3     3545     TIP3     OH2      OT      -0.834000       15.9994           0
     18954 TIP3     3545     TIP3     H1       HT       0.417000       1.00800           0
     18955 TIP3     3545     TIP3     H2       HT       0.417000       1.00800           0
     18956 TIP3     3546     TIP3     OH2      OT      -0.834000       15.9994           0
     18957 TIP3     3546     TIP3     H1       HT       0.417000       1.00800           0
     18958 TIP3     3546     TIP3     H2       HT       0.417000       1.00800           0
     18959 TIP3     3547     TIP3     OH2      OT      -0.834000       15.9994           0
     18960 TIP3     3547     TIP3     H1       HT       0.417000       1.00800           0
     18961 TIP3     3547     TIP3     H2       HT       0.417000       1.00800           0
     18962 TIP3     3548     TIP3     OH2      OT      -0.834000       15.9994           0
     18963 TIP3     3548     TIP3     H1       HT       0.417000       1.00800           0
     18964 TIP3     3548     TIP3     H2       HT       0.417000       1.00800           0
     18965 TIP3     3549     TIP3     OH2      OT      -0.834000       15.9994           0
     18966 TIP3     3549     TIP3     H1       HT       0.417000       1.00800           0
     18967 TIP3     3549     TIP3     H2       HT       0.417000       1.00800           0
     18968 TIP3     3550     TIP3     OH2      OT      -0.834000       15.9994           0
     18969 TIP3     3550     TIP3     H1       HT       0.417000       1.00800           0
     18970 TIP3     3550     TIP3     H2       HT       0.417000       1.00800           0
     18971 TIP3     3551     TIP3     OH2      OT      -0.834000       15.9994           0
     18972 TIP3     3551     TIP3     H1       HT       0.417000       1.00800           0
     18973 TIP3     3551     TIP3     H2       HT       0.417000       1.00800           0
     18974 TIP3     3552     TIP3     OH2      OT      -0.834000       15.9994           0
     18975 TIP3     3552     TIP3     H1       HT       0.417000       1.00800           0
     18976 TIP3     3552     TIP3     H2       HT       0.417000       1.00800           0
     18977 TIP3     3553     TIP3     OH2      OT      -0.834000       15.9994           0
     18978 TIP3     3553     TIP3     H1       HT       0.417000       1.00800           0
     18979 TIP3     3553     TIP3     H2       HT       0.417000       1.00800           0
     18980 TIP3     3554     TIP3     OH2      OT      -0.834000       15.9994           0
     18981 TIP3     3554     TIP3     H1       HT       0.417000       1.00800           0
     18982 TIP3     3554     TIP3     H2       HT       0.417000       1.00800           0
     18983 TIP3     3555     TIP3     OH2      OT      -0.834000       15.9994           0
     18984 TIP3     3555     TIP3     H1       HT       0.417000       1.00800           0
     18985 TIP3     3555     TIP3     H2       HT       0.417000       1.00800           0
     18986 TIP3     3556     TIP3     OH2      OT      -0.834000       15.9994           0
     18987 TIP3     3556     TIP3     H1       HT       0.417000       1.00800           0
     18988 TIP3     3556     TIP3     H2       HT       0.417000       1.00800           0
     18989 TIP3     3557     TIP3     OH2      OT      -0.834000       15.9994           0
     18990 TIP3     3557     TIP3     H1       HT       0.417000       1.00800           0
     18991 TIP3     3557     TIP3     H2       HT       0.417000       1.00800           0
     18992 TIP3     3558     TIP3     OH2      OT      -0.834000       15.9994           0
     18993 TIP3     3558     TIP3     H1       HT       0.417000       1.00800           0
     18994 TIP3     3558     TIP3     H2       HT       0.417000       1.00800           0
     18995 TIP3     3559     TIP3     OH2      OT      -0.834000       15.9994           0
     18996 TIP3     3559     TIP3     H1       HT       0.417000       1.00800           0
     18997 TIP3     3559     TIP3     H2       HT       0.417000       1.00800           0
     18998 TIP3     3560     TIP3     OH2      OT      -0.834000       15.9994           0
     18999 TIP3     3560     TIP3     H1       HT       0.417000       1.00800           0
     19000 TIP3     3560     TIP3     H2       HT       0.417000       1.00800           0
     19001 TIP3     3561     TIP3     OH2      OT      -0.834000       15.9994           0
     19002 TIP3     3561     TIP3     H1       HT       0.417000       1.00800           0
     19003 TIP3     3561     TIP3     H2       HT       0.417000       1.00800           0
     19004 TIP3     3562     TIP3     OH2      OT      -0.834000       15.9994           0
     19005 TIP3     3562     TIP3     H1       HT       0.417000       1.00800           0
     19006 TIP3     3562     TIP3     H2       HT       0.417000       1.00800           0
     19007 TIP3     3563     TIP3     OH2      OT      -0.834000       15.9994           0
     19008 TIP3     3563     TIP3     H1       HT       0.417000       1.00800           0
     19009 TIP3     3563     TIP3     H2       HT       0.417000       1.00800           0
     19010 TIP3     3564     TIP3     OH2      OT      -0.834000       15.9994           0
     19011 TIP3     3564     TIP3     H1       HT       0.417000       1.00800           0
     19012 TIP3     3564     TIP3     H2       HT       0.417000       1.00800           0
     19013 TIP3     3565     TIP3     OH2      OT      -0.834000       15.9994           0
     19014 TIP3     3565     TIP3     H1       HT       0.417000       1.00800           0
     19015 TIP3     3565     TIP3     H2       HT       0.417000       1.00800           0
     19016 TIP3     3566     TIP3     OH2      OT      -0.834000       15.9994           0
     19017 TIP3     3566     TIP3     H1       HT       0.417000       1.00800           0
     19018 TIP3     3566     TIP3     H2       HT       0.417000       1.00800           0
     19019 TIP3     3567     TIP3     OH2      OT      -0.834000       15.9994           0
     19020 TIP3     3567     TIP3     H1       HT       0.417000       1.00800           0
     19021 TIP3     3567     TIP3     H2       HT       0.417000       1.00800           0
     19022 TIP3     3568     TIP3     OH2      OT      -0.834000       15.9994           0
     19023 TIP3     3568     TIP3     H1       HT       0.417000       1.00800           0
     19024 TIP3     3568     TIP3     H2       HT       0.417000       1.00800           0
     19025 TIP3     3569     TIP3     OH2      OT      -0.834000       15.9994           0
     19026 TIP3     3569     TIP3     H1       HT       0.417000       1.00800           0
     19027 TIP3     3569     TIP3     H2       HT       0.417000       1.00800           0
     19028 TIP3     3570     TIP3     OH2      OT      -0.834000       15.9994           0
     19029 TIP3     3570     TIP3     H1       HT       0.417000       1.00800           0
     19030 TIP3     3570     TIP3     H2       HT       0.417000       1.00800           0
     19031 TIP3     3571     TIP3     OH2      OT      -0.834000       15.9994           0
     19032 TIP3     3571     TIP3     H1       HT       0.417000       1.00800           0
     19033 TIP3     3571     TIP3     H2       HT       0.417000       1.00800           0
     19034 TIP3     3572     TIP3     OH2      OT      -0.834000       15.9994           0
     19035 TIP3     3572     TIP3     H1       HT       0.417000       1.00800           0
     19036 TIP3     3572     TIP3     H2       HT       0.417000       1.00800           0
     19037 TIP3     3573     TIP3     OH2      OT      -0.834000       15.9994           0
     19038 TIP3     3573     TIP3     H1       HT       0.417000       1.00800           0
     19039 TIP3     3573     TIP3     H2       HT       0.417000       1.00800           0
     19040 TIP3     3574     TIP3     OH2      OT      -0.834000       15.9994           0
     19041 TIP3     3574     TIP3     H1       HT       0.417000       1.00800           0
     19042 TIP3     3574     TIP3     H2       HT       0.417000       1.00800           0
     19043 TIP3     3575     TIP3     OH2      OT      -0.834000       15.9994           0
     19044 TIP3     3575     TIP3     H1       HT       0.417000       1.00800           0
     19045 TIP3     3575     TIP3     H2       HT       0.417000       1.00800           0
     19046 TIP3     3576     TIP3     OH2      OT      -0.834000       15.9994           0
     19047 TIP3     3576     TIP3     H1       HT       0.417000       1.00800           0
     19048 TIP3     3576     TIP3     H2       HT       0.417000       1.00800           0
     19049 TIP3     3577     TIP3     OH2      OT      -0.834000       15.9994           0
     19050 TIP3     3577     TIP3     H1       HT       0.417000       1.00800           0
     19051 TIP3     3577     TIP3     H2       HT       0.417000       1.00800           0
     19052 TIP3     3578     TIP3     OH2      OT      -0.834000       15.9994           0
     19053 TIP3     3578     TIP3     H1       HT       0.417000       1.00800           0
     19054 TIP3     3578     TIP3     H2       HT       0.417000       1.00800           0
     19055 TIP3     3579     TIP3     OH2      OT      -0.834000       15.9994           0
     19056 TIP3     3579     TIP3     H1       HT       0.417000       1.00800           0
     19057 TIP3     3579     TIP3     H2       HT       0.417000       1.00800           0
     19058 TIP3     3580     TIP3     OH2      OT      -0.834000       15.9994           0
     19059 TIP3     3580     TIP3     H1       HT       0.417000       1.00800           0
     19060 TIP3     3580     TIP3     H2       HT       0.417000       1.00800           0
     19061 TIP3     3581     TIP3     OH2      OT      -0.834000       15.9994           0
     19062 TIP3     3581     TIP3     H1       HT       0.417000       1.00800           0
     19063 TIP3     3581     TIP3     H2       HT       0.417000       1.00800           0
     19064 TIP3     3582     TIP3     OH2      OT      -0.834000       15.9994           0
     19065 TIP3     3582     TIP3     H1       HT       0.417000       1.00800           0
     19066 TIP3     3582     TIP3     H2       HT       0.417000       1.00800           0
     19067 TIP3     3583     TIP3     OH2      OT      -0.834000       15.9994           0
     19068 TIP3     3583     TIP3     H1       HT       0.417000       1.00800           0
     19069 TIP3     3583     TIP3     H2       HT       0.417000       1.00800           0
     19070 TIP3     3584     TIP3     OH2      OT      -0.834000       15.9994           0
     19071 TIP3     3584     TIP3     H1       HT       0.417000       1.00800           0
     19072 TIP3     3584     TIP3     H2       HT       0.417000       1.00800           0
     19073 TIP3     3585     TIP3     OH2      OT      -0.834000       15.9994           0
     19074 TIP3     3585     TIP3     H1       HT       0.417000       1.00800           0
     19075 TIP3     3585     TIP3     H2       HT       0.417000       1.00800           0
     19076 TIP3     3586     TIP3     OH2      OT      -0.834000       15.9994           0
     19077 TIP3     3586     TIP3     H1       HT       0.417000       1.00800           0
     19078 TIP3     3586     TIP3     H2       HT       0.417000       1.00800           0
     19079 TIP3     3587     TIP3     OH2      OT      -0.834000       15.9994           0
     19080 TIP3     3587     TIP3     H1       HT       0.417000       1.00800           0
     19081 TIP3     3587     TIP3     H2       HT       0.417000       1.00800           0
     19082 TIP3     3588     TIP3     OH2      OT      -0.834000       15.9994           0
     19083 TIP3     3588     TIP3     H1       HT       0.417000       1.00800           0
     19084 TIP3     3588     TIP3     H2       HT       0.417000       1.00800           0
     19085 TIP3     3589     TIP3     OH2      OT      -0.834000       15.9994           0
     19086 TIP3     3589     TIP3     H1       HT       0.417000       1.00800           0
     19087 TIP3     3589     TIP3     H2       HT       0.417000       1.00800           0
     19088 TIP3     3590     TIP3     OH2      OT      -0.834000       15.9994           0
     19089 TIP3     3590     TIP3     H1       HT       0.417000       1.00800           0
     19090 TIP3     3590     TIP3     H2       HT       0.417000       1.00800           0
     19091 TIP3     3591     TIP3     OH2      OT      -0.834000       15.9994           0
     19092 TIP3     3591     TIP3     H1       HT       0.417000       1.00800           0
     19093 TIP3     3591     TIP3     H2       HT       0.417000       1.00800           0
     19094 TIP3     3592     TIP3     OH2      OT      -0.834000       15.9994           0
     19095 TIP3     3592     TIP3     H1       HT       0.417000       1.00800           0
     19096 TIP3     3592     TIP3     H2       HT       0.417000       1.00800           0
     19097 TIP3     3593     TIP3     OH2      OT      -0.834000       15.9994           0
     19098 TIP3     3593     TIP3     H1       HT       0.417000       1.00800           0
     19099 TIP3     3593     TIP3     H2       HT       0.417000       1.00800           0
     19100 TIP3     3594     TIP3     OH2      OT      -0.834000       15.9994           0
     19101 TIP3     3594     TIP3     H1       HT       0.417000       1.00800           0
     19102 TIP3     3594     TIP3     H2       HT       0.417000       1.00800           0
     19103 TIP3     3595     TIP3     OH2      OT      -0.834000       15.9994           0
     19104 TIP3     3595     TIP3     H1       HT       0.417000       1.00800           0
     19105 TIP3     3595     TIP3     H2       HT       0.417000       1.00800           0
     19106 TIP3     3596     TIP3     OH2      OT      -0.834000       15.9994           0
     19107 TIP3     3596     TIP3     H1       HT       0.417000       1.00800           0
     19108 TIP3     3596     TIP3     H2       HT       0.417000       1.00800           0
     19109 TIP3     3597     TIP3     OH2      OT      -0.834000       15.9994           0
     19110 TIP3     3597     TIP3     H1       HT       0.417000       1.00800           0
     19111 TIP3     3597     TIP3     H2       HT       0.417000       1.00800           0
     19112 TIP3     3598     TIP3     OH2      OT      -0.834000       15.9994           0
     19113 TIP3     3598     TIP3     H1       HT       0.417000       1.00800           0
     19114 TIP3     3598     TIP3     H2       HT       0.417000       1.00800           0
     19115 TIP3     3599     TIP3     OH2      OT      -0.834000       15.9994           0
     19116 TIP3     3599     TIP3     H1       HT       0.417000       1.00800           0
     19117 TIP3     3599     TIP3     H2       HT       0.417000       1.00800           0
     19118 TIP3     3600     TIP3     OH2      OT      -0.834000       15.9994           0
     19119 TIP3     3600     TIP3     H1       HT       0.417000       1.00800           0
     19120 TIP3     3600     TIP3     H2       HT       0.417000       1.00800           0
     19121 TIP3     3601     TIP3     OH2      OT      -0.834000       15.9994           0
     19122 TIP3     3601     TIP3     H1       HT       0.417000       1.00800           0
     19123 TIP3     3601     TIP3     H2       HT       0.417000       1.00800           0
     19124 TIP3     3602     TIP3     OH2      OT      -0.834000       15.9994           0
     19125 TIP3     3602     TIP3     H1       HT       0.417000       1.00800           0
     19126 TIP3     3602     TIP3     H2       HT       0.417000       1.00800           0
     19127 TIP3     3603     TIP3     OH2      OT      -0.834000       15.9994           0
     19128 TIP3     3603     TIP3     H1       HT       0.417000       1.00800           0
     19129 TIP3     3603     TIP3     H2       HT       0.417000       1.00800           0
     19130 TIP3     3604     TIP3     OH2      OT      -0.834000       15.9994           0
     19131 TIP3     3604     TIP3     H1       HT       0.417000       1.00800           0
     19132 TIP3     3604     TIP3     H2       HT       0.417000       1.00800           0
     19133 TIP3     3605     TIP3     OH2      OT      -0.834000       15.9994           0
     19134 TIP3     3605     TIP3     H1       HT       0.417000       1.00800           0
     19135 TIP3     3605     TIP3     H2       HT       0.417000       1.00800           0
     19136 TIP3     3606     TIP3     OH2      OT      -0.834000       15.9994           0
     19137 TIP3     3606     TIP3     H1       HT       0.417000       1.00800           0
     19138 TIP3     3606     TIP3     H2       HT       0.417000       1.00800           0
     19139 TIP3     3607     TIP3     OH2      OT      -0.834000       15.9994           0
     19140 TIP3     3607     TIP3     H1       HT       0.417000       1.00800           0
     19141 TIP3     3607     TIP3     H2       HT       0.417000       1.00800           0
     19142 TIP3     3608     TIP3     OH2      OT      -0.834000       15.9994           0
     19143 TIP3     3608     TIP3     H1       HT       0.417000       1.00800           0
     19144 TIP3     3608     TIP3     H2       HT       0.417000       1.00800           0
     19145 TIP3     3609     TIP3     OH2      OT      -0.834000       15.9994           0
     19146 TIP3     3609     TIP3     H1       HT       0.417000       1.00800           0
     19147 TIP3     3609     TIP3     H2       HT       0.417000       1.00800           0
     19148 TIP3     3610     TIP3     OH2      OT      -0.834000       15.9994           0
     19149 TIP3     3610     TIP3     H1       HT       0.417000       1.00800           0
     19150 TIP3     3610     TIP3     H2       HT       0.417000       1.00800           0
     19151 TIP3     3611     TIP3     OH2      OT      -0.834000       15.9994           0
     19152 TIP3     3611     TIP3     H1       HT       0.417000       1.00800           0
     19153 TIP3     3611     TIP3     H2       HT       0.417000       1.00800           0
     19154 TIP3     3612     TIP3     OH2      OT      -0.834000       15.9994           0
     19155 TIP3     3612     TIP3     H1       HT       0.417000       1.00800           0
     19156 TIP3     3612     TIP3     H2       HT       0.417000       1.00800           0
     19157 TIP3     3613     TIP3     OH2      OT      -0.834000       15.9994           0
     19158 TIP3     3613     TIP3     H1       HT       0.417000       1.00800           0
     19159 TIP3     3613     TIP3     H2       HT       0.417000       1.00800           0
     19160 TIP3     3614     TIP3     OH2      OT      -0.834000       15.9994           0
     19161 TIP3     3614     TIP3     H1       HT       0.417000       1.00800           0
     19162 TIP3     3614     TIP3     H2       HT       0.417000       1.00800           0
     19163 TIP3     3615     TIP3     OH2      OT      -0.834000       15.9994           0
     19164 TIP3     3615     TIP3     H1       HT       0.417000       1.00800           0
     19165 TIP3     3615     TIP3     H2       HT       0.417000       1.00800           0
     19166 TIP3     3616     TIP3     OH2      OT      -0.834000       15.9994           0
     19167 TIP3     3616     TIP3     H1       HT       0.417000       1.00800           0
     19168 TIP3     3616     TIP3     H2       HT       0.417000       1.00800           0
     19169 TIP3     3617     TIP3     OH2      OT      -0.834000       15.9994           0
     19170 TIP3     3617     TIP3     H1       HT       0.417000       1.00800           0
     19171 TIP3     3617     TIP3     H2       HT       0.417000       1.00800           0
     19172 TIP3     3618     TIP3     OH2      OT      -0.834000       15.9994           0
     19173 TIP3     3618     TIP3     H1       HT       0.417000       1.00800           0
     19174 TIP3     3618     TIP3     H2       HT       0.417000       1.00800           0
     19175 TIP3     3619     TIP3     OH2      OT      -0.834000       15.9994           0
     19176 TIP3     3619     TIP3     H1       HT       0.417000       1.00800           0
     19177 TIP3     3619     TIP3     H2       HT       0.417000       1.00800           0
     19178 TIP3     3620     TIP3     OH2      OT      -0.834000       15.9994           0
     19179 TIP3     3620     TIP3     H1       HT       0.417000       1.00800           0
     19180 TIP3     3620     TIP3     H2       HT       0.417000       1.00800           0
     19181 TIP3     3621     TIP3     OH2      OT      -0.834000       15.9994           0
     19182 TIP3     3621     TIP3     H1       HT       0.417000       1.00800           0
     19183 TIP3     3621     TIP3     H2       HT       0.417000       1.00800           0
     19184 TIP3     3622     TIP3     OH2      OT      -0.834000       15.9994           0
     19185 TIP3     3622     TIP3     H1       HT       0.417000       1.00800           0
     19186 TIP3     3622     TIP3     H2       HT       0.417000       1.00800           0
     19187 TIP3     3623     TIP3     OH2      OT      -0.834000       15.9994           0
     19188 TIP3     3623     TIP3     H1       HT       0.417000       1.00800           0
     19189 TIP3     3623     TIP3     H2       HT       0.417000       1.00800           0
     19190 TIP3     3624     TIP3     OH2      OT      -0.834000       15.9994           0
     19191 TIP3     3624     TIP3     H1       HT       0.417000       1.00800           0
     19192 TIP3     3624     TIP3     H2       HT       0.417000       1.00800           0
     19193 TIP3     3625     TIP3     OH2      OT      -0.834000       15.9994           0
     19194 TIP3     3625     TIP3     H1       HT       0.417000       1.00800           0
     19195 TIP3     3625     TIP3     H2       HT       0.417000       1.00800           0
     19196 TIP3     3626     TIP3     OH2      OT      -0.834000       15.9994           0
     19197 TIP3     3626     TIP3     H1       HT       0.417000       1.00800           0
     19198 TIP3     3626     TIP3     H2       HT       0.417000       1.00800           0
     19199 TIP3     3627     TIP3     OH2      OT      -0.834000       15.9994           0
     19200 TIP3     3627     TIP3     H1       HT       0.417000       1.00800           0
     19201 TIP3     3627     TIP3     H2       HT       0.417000       1.00800           0
     19202 TIP3     3628     TIP3     OH2      OT      -0.834000       15.9994           0
     19203 TIP3     3628     TIP3     H1       HT       0.417000       1.00800           0
     19204 TIP3     3628     TIP3     H2       HT       0.417000       1.00800           0
     19205 TIP3     3629     TIP3     OH2      OT      -0.834000       15.9994           0
     19206 TIP3     3629     TIP3     H1       HT       0.417000       1.00800           0
     19207 TIP3     3629     TIP3     H2       HT       0.417000       1.00800           0
     19208 TIP3     3630     TIP3     OH2      OT      -0.834000       15.9994           0
     19209 TIP3     3630     TIP3     H1       HT       0.417000       1.00800           0
     19210 TIP3     3630     TIP3     H2       HT       0.417000       1.00800           0
     19211 TIP3     3631     TIP3     OH2      OT      -0.834000       15.9994           0
     19212 TIP3     3631     TIP3     H1       HT       0.417000       1.00800           0
     19213 TIP3     3631     TIP3     H2       HT       0.417000       1.00800           0
     19214 TIP3     3632     TIP3     OH2      OT      -0.834000       15.9994           0
     19215 TIP3     3632     TIP3     H1       HT       0.417000       1.00800           0
     19216 TIP3     3632     TIP3     H2       HT       0.417000       1.00800           0
     19217 TIP3     3633     TIP3     OH2      OT      -0.834000       15.9994           0
     19218 TIP3     3633     TIP3     H1       HT       0.417000       1.00800           0
     19219 TIP3     3633     TIP3     H2       HT       0.417000       1.00800           0
     19220 TIP3     3634     TIP3     OH2      OT      -0.834000       15.9994           0
     19221 TIP3     3634     TIP3     H1       HT       0.417000       1.00800           0
     19222 TIP3     3634     TIP3     H2       HT       0.417000       1.00800           0
     19223 TIP3     3635     TIP3     OH2      OT      -0.834000       15.9994           0
     19224 TIP3     3635     TIP3     H1       HT       0.417000       1.00800           0
     19225 TIP3     3635     TIP3     H2       HT       0.417000       1.00800           0
     19226 TIP3     3636     TIP3     OH2      OT      -0.834000       15.9994           0
     19227 TIP3     3636     TIP3     H1       HT       0.417000       1.00800           0
     19228 TIP3     3636     TIP3     H2       HT       0.417000       1.00800           0
     19229 TIP3     3637     TIP3     OH2      OT      -0.834000       15.9994           0
     19230 TIP3     3637     TIP3     H1       HT       0.417000       1.00800           0
     19231 TIP3     3637     TIP3     H2       HT       0.417000       1.00800           0
     19232 TIP3     3638     TIP3     OH2      OT      -0.834000       15.9994           0
     19233 TIP3     3638     TIP3     H1       HT       0.417000       1.00800           0
     19234 TIP3     3638     TIP3     H2       HT       0.417000       1.00800           0
     19235 TIP3     3639     TIP3     OH2      OT      -0.834000       15.9994           0
     19236 TIP3     3639     TIP3     H1       HT       0.417000       1.00800           0
     19237 TIP3     3639     TIP3     H2       HT       0.417000       1.00800           0
     19238 TIP3     3640     TIP3     OH2      OT      -0.834000       15.9994           0
     19239 TIP3     3640     TIP3     H1       HT       0.417000       1.00800           0
     19240 TIP3     3640     TIP3     H2       HT       0.417000       1.00800           0
     19241 TIP3     3641     TIP3     OH2      OT      -0.834000       15.9994           0
     19242 TIP3     3641     TIP3     H1       HT       0.417000       1.00800           0
     19243 TIP3     3641     TIP3     H2       HT       0.417000       1.00800           0
     19244 TIP3     3642     TIP3     OH2      OT      -0.834000       15.9994           0
     19245 TIP3     3642     TIP3     H1       HT       0.417000       1.00800           0
     19246 TIP3     3642     TIP3     H2       HT       0.417000       1.00800           0
     19247 TIP3     3643     TIP3     OH2      OT      -0.834000       15.9994           0
     19248 TIP3     3643     TIP3     H1       HT       0.417000       1.00800           0
     19249 TIP3     3643     TIP3     H2       HT       0.417000       1.00800           0
     19250 TIP3     3644     TIP3     OH2      OT      -0.834000       15.9994           0
     19251 TIP3     3644     TIP3     H1       HT       0.417000       1.00800           0
     19252 TIP3     3644     TIP3     H2       HT       0.417000       1.00800           0
     19253 TIP3     3645     TIP3     OH2      OT      -0.834000       15.9994           0
     19254 TIP3     3645     TIP3     H1       HT       0.417000       1.00800           0
     19255 TIP3     3645     TIP3     H2       HT       0.417000       1.00800           0
     19256 TIP3     3646     TIP3     OH2      OT      -0.834000       15.9994           0
     19257 TIP3     3646     TIP3     H1       HT       0.417000       1.00800           0
     19258 TIP3     3646     TIP3     H2       HT       0.417000       1.00800           0
     19259 TIP3     3647     TIP3     OH2      OT      -0.834000       15.9994           0
     19260 TIP3     3647     TIP3     H1       HT       0.417000       1.00800           0
     19261 TIP3     3647     TIP3     H2       HT       0.417000       1.00800           0
     19262 TIP3     3648     TIP3     OH2      OT      -0.834000       15.9994           0
     19263 TIP3     3648     TIP3     H1       HT       0.417000       1.00800           0
     19264 TIP3     3648     TIP3     H2       HT       0.417000       1.00800           0
     19265 TIP3     3649     TIP3     OH2      OT      -0.834000       15.9994           0
     19266 TIP3     3649     TIP3     H1       HT       0.417000       1.00800           0
     19267 TIP3     3649     TIP3     H2       HT       0.417000       1.00800           0
     19268 TIP3     3650     TIP3     OH2      OT      -0.834000       15.9994           0
     19269 TIP3     3650     TIP3     H1       HT       0.417000       1.00800           0
     19270 TIP3     3650     TIP3     H2       HT       0.417000       1.00800           0
     19271 TIP3     3651     TIP3     OH2      OT      -0.834000       15.9994           0
     19272 TIP3     3651     TIP3     H1       HT       0.417000       1.00800           0
     19273 TIP3     3651     TIP3     H2       HT       0.417000       1.00800           0
     19274 TIP3     3652     TIP3     OH2      OT      -0.834000       15.9994           0
     19275 TIP3     3652     TIP3     H1       HT       0.417000       1.00800           0
     19276 TIP3     3652     TIP3     H2       HT       0.417000       1.00800           0
     19277 TIP3     3653     TIP3     OH2      OT      -0.834000       15.9994           0
     19278 TIP3     3653     TIP3     H1       HT       0.417000       1.00800           0
     19279 TIP3     3653     TIP3     H2       HT       0.417000       1.00800           0
     19280 TIP3     3654     TIP3     OH2      OT      -0.834000       15.9994           0
     19281 TIP3     3654     TIP3     H1       HT       0.417000       1.00800           0
     19282 TIP3     3654     TIP3     H2       HT       0.417000       1.00800           0
     19283 TIP3     3655     TIP3     OH2      OT      -0.834000       15.9994           0
     19284 TIP3     3655     TIP3     H1       HT       0.417000       1.00800           0
     19285 TIP3     3655     TIP3     H2       HT       0.417000       1.00800           0
     19286 TIP3     3656     TIP3     OH2      OT      -0.834000       15.9994           0
     19287 TIP3     3656     TIP3     H1       HT       0.417000       1.00800           0
     19288 TIP3     3656     TIP3     H2       HT       0.417000       1.00800           0
     19289 TIP3     3657     TIP3     OH2      OT      -0.834000       15.9994           0
     19290 TIP3     3657     TIP3     H1       HT       0.417000       1.00800           0
     19291 TIP3     3657     TIP3     H2       HT       0.417000       1.00800           0
     19292 TIP3     3658     TIP3     OH2      OT      -0.834000       15.9994           0
     19293 TIP3     3658     TIP3     H1       HT       0.417000       1.00800           0
     19294 TIP3     3658     TIP3     H2       HT       0.417000       1.00800           0
     19295 TIP3     3659     TIP3     OH2      OT      -0.834000       15.9994           0
     19296 TIP3     3659     TIP3     H1       HT       0.417000       1.00800           0
     19297 TIP3     3659     TIP3     H2       HT       0.417000       1.00800           0
     19298 TIP3     3660     TIP3     OH2      OT      -0.834000       15.9994           0
     19299 TIP3     3660     TIP3     H1       HT       0.417000       1.00800           0
     19300 TIP3     3660     TIP3     H2       HT       0.417000       1.00800           0
     19301 TIP3     3661     TIP3     OH2      OT      -0.834000       15.9994           0
     19302 TIP3     3661     TIP3     H1       HT       0.417000       1.00800           0
     19303 TIP3     3661     TIP3     H2       HT       0.417000       1.00800           0
     19304 TIP3     3662     TIP3     OH2      OT      -0.834000       15.9994           0
     19305 TIP3     3662     TIP3     H1       HT       0.417000       1.00800           0
     19306 TIP3     3662     TIP3     H2       HT       0.417000       1.00800           0
     19307 TIP3     3663     TIP3     OH2      OT      -0.834000       15.9994           0
     19308 TIP3     3663     TIP3     H1       HT       0.417000       1.00800           0
     19309 TIP3     3663     TIP3     H2       HT       0.417000       1.00800           0
     19310 TIP3     3664     TIP3     OH2      OT      -0.834000       15.9994           0
     19311 TIP3     3664     TIP3     H1       HT       0.417000       1.00800           0
     19312 TIP3     3664     TIP3     H2       HT       0.417000       1.00800           0
     19313 TIP3     3665     TIP3     OH2      OT      -0.834000       15.9994           0
     19314 TIP3     3665     TIP3     H1       HT       0.417000       1.00800           0
     19315 TIP3     3665     TIP3     H2       HT       0.417000       1.00800           0
     19316 TIP3     3666     TIP3     OH2      OT      -0.834000       15.9994           0
     19317 TIP3     3666     TIP3     H1       HT       0.417000       1.00800           0
     19318 TIP3     3666     TIP3     H2       HT       0.417000       1.00800           0
     19319 TIP3     3667     TIP3     OH2      OT      -0.834000       15.9994           0
     19320 TIP3     3667     TIP3     H1       HT       0.417000       1.00800           0
     19321 TIP3     3667     TIP3     H2       HT       0.417000       1.00800           0
     19322 TIP3     3668     TIP3     OH2      OT      -0.834000       15.9994           0
     19323 TIP3     3668     TIP3     H1       HT       0.417000       1.00800           0
     19324 TIP3     3668     TIP3     H2       HT       0.417000       1.00800           0
     19325 TIP3     3669     TIP3     OH2      OT      -0.834000       15.9994           0
     19326 TIP3     3669     TIP3     H1       HT       0.417000       1.00800           0
     19327 TIP3     3669     TIP3     H2       HT       0.417000       1.00800           0
     19328 TIP3     3670     TIP3     OH2      OT      -0.834000       15.9994           0
     19329 TIP3     3670     TIP3     H1       HT       0.417000       1.00800           0
     19330 TIP3     3670     TIP3     H2       HT       0.417000       1.00800           0
     19331 TIP3     3671     TIP3     OH2      OT      -0.834000       15.9994           0
     19332 TIP3     3671     TIP3     H1       HT       0.417000       1.00800           0
     19333 TIP3     3671     TIP3     H2       HT       0.417000       1.00800           0
     19334 TIP3     3672     TIP3     OH2      OT      -0.834000       15.9994           0
     19335 TIP3     3672     TIP3     H1       HT       0.417000       1.00800           0
     19336 TIP3     3672     TIP3     H2       HT       0.417000       1.00800           0
     19337 TIP3     3673     TIP3     OH2      OT      -0.834000       15.9994           0
     19338 TIP3     3673     TIP3     H1       HT       0.417000       1.00800           0
     19339 TIP3     3673     TIP3     H2       HT       0.417000       1.00800           0
     19340 TIP3     3674     TIP3     OH2      OT      -0.834000       15.9994           0
     19341 TIP3     3674     TIP3     H1       HT       0.417000       1.00800           0
     19342 TIP3     3674     TIP3     H2       HT       0.417000       1.00800           0
     19343 TIP3     3675     TIP3     OH2      OT      -0.834000       15.9994           0
     19344 TIP3     3675     TIP3     H1       HT       0.417000       1.00800           0
     19345 TIP3     3675     TIP3     H2       HT       0.417000       1.00800           0
     19346 TIP3     3676     TIP3     OH2      OT      -0.834000       15.9994           0
     19347 TIP3     3676     TIP3     H1       HT       0.417000       1.00800           0
     19348 TIP3     3676     TIP3     H2       HT       0.417000       1.00800           0
     19349 TIP3     3677     TIP3     OH2      OT      -0.834000       15.9994           0
     19350 TIP3     3677     TIP3     H1       HT       0.417000       1.00800           0
     19351 TIP3     3677     TIP3     H2       HT       0.417000       1.00800           0
     19352 TIP3     3678     TIP3     OH2      OT      -0.834000       15.9994           0
     19353 TIP3     3678     TIP3     H1       HT       0.417000       1.00800           0
     19354 TIP3     3678     TIP3     H2       HT       0.417000       1.00800           0
     19355 TIP3     3679     TIP3     OH2      OT      -0.834000       15.9994           0
     19356 TIP3     3679     TIP3     H1       HT       0.417000       1.00800           0
     19357 TIP3     3679     TIP3     H2       HT       0.417000       1.00800           0
     19358 TIP3     3680     TIP3     OH2      OT      -0.834000       15.9994           0
     19359 TIP3     3680     TIP3     H1       HT       0.417000       1.00800           0
     19360 TIP3     3680     TIP3     H2       HT       0.417000       1.00800           0
     19361 TIP3     3681     TIP3     OH2      OT      -0.834000       15.9994           0
     19362 TIP3     3681     TIP3     H1       HT       0.417000       1.00800           0
     19363 TIP3     3681     TIP3     H2       HT       0.417000       1.00800           0
     19364 TIP3     3682     TIP3     OH2      OT      -0.834000       15.9994           0
     19365 TIP3     3682     TIP3     H1       HT       0.417000       1.00800           0
     19366 TIP3     3682     TIP3     H2       HT       0.417000       1.00800           0
     19367 TIP3     3683     TIP3     OH2      OT      -0.834000       15.9994           0
     19368 TIP3     3683     TIP3     H1       HT       0.417000       1.00800           0
     19369 TIP3     3683     TIP3     H2       HT       0.417000       1.00800           0
     19370 TIP3     3684     TIP3     OH2      OT      -0.834000       15.9994           0
     19371 TIP3     3684     TIP3     H1       HT       0.417000       1.00800           0
     19372 TIP3     3684     TIP3     H2       HT       0.417000       1.00800           0
     19373 TIP3     3685     TIP3     OH2      OT      -0.834000       15.9994           0
     19374 TIP3     3685     TIP3     H1       HT       0.417000       1.00800           0
     19375 TIP3     3685     TIP3     H2       HT       0.417000       1.00800           0
     19376 TIP3     3686     TIP3     OH2      OT      -0.834000       15.9994           0
     19377 TIP3     3686     TIP3     H1       HT       0.417000       1.00800           0
     19378 TIP3     3686     TIP3     H2       HT       0.417000       1.00800           0
     19379 TIP3     3687     TIP3     OH2      OT      -0.834000       15.9994           0
     19380 TIP3     3687     TIP3     H1       HT       0.417000       1.00800           0
     19381 TIP3     3687     TIP3     H2       HT       0.417000       1.00800           0
     19382 TIP3     3688     TIP3     OH2      OT      -0.834000       15.9994           0
     19383 TIP3     3688     TIP3     H1       HT       0.417000       1.00800           0
     19384 TIP3     3688     TIP3     H2       HT       0.417000       1.00800           0
     19385 TIP3     3689     TIP3     OH2      OT      -0.834000       15.9994           0
     19386 TIP3     3689     TIP3     H1       HT       0.417000       1.00800           0
     19387 TIP3     3689     TIP3     H2       HT       0.417000       1.00800           0
     19388 TIP3     3690     TIP3     OH2      OT      -0.834000       15.9994           0
     19389 TIP3     3690     TIP3     H1       HT       0.417000       1.00800           0
     19390 TIP3     3690     TIP3     H2       HT       0.417000       1.00800           0
     19391 TIP3     3691     TIP3     OH2      OT      -0.834000       15.9994           0
     19392 TIP3     3691     TIP3     H1       HT       0.417000       1.00800           0
     19393 TIP3     3691     TIP3     H2       HT       0.417000       1.00800           0
     19394 TIP3     3692     TIP3     OH2      OT      -0.834000       15.9994           0
     19395 TIP3     3692     TIP3     H1       HT       0.417000       1.00800           0
     19396 TIP3     3692     TIP3     H2       HT       0.417000       1.00800           0
     19397 TIP3     3693     TIP3     OH2      OT      -0.834000       15.9994           0
     19398 TIP3     3693     TIP3     H1       HT       0.417000       1.00800           0
     19399 TIP3     3693     TIP3     H2       HT       0.417000       1.00800           0
     19400 TIP3     3694     TIP3     OH2      OT      -0.834000       15.9994           0
     19401 TIP3     3694     TIP3     H1       HT       0.417000       1.00800           0
     19402 TIP3     3694     TIP3     H2       HT       0.417000       1.00800           0
     19403 TIP3     3695     TIP3     OH2      OT      -0.834000       15.9994           0
     19404 TIP3     3695     TIP3     H1       HT       0.417000       1.00800           0
     19405 TIP3     3695     TIP3     H2       HT       0.417000       1.00800           0
     19406 TIP3     3696     TIP3     OH2      OT      -0.834000       15.9994           0
     19407 TIP3     3696     TIP3     H1       HT       0.417000       1.00800           0
     19408 TIP3     3696     TIP3     H2       HT       0.417000       1.00800           0
     19409 TIP3     3697     TIP3     OH2      OT      -0.834000       15.9994           0
     19410 TIP3     3697     TIP3     H1       HT       0.417000       1.00800           0
     19411 TIP3     3697     TIP3     H2       HT       0.417000       1.00800           0
     19412 TIP3     3698     TIP3     OH2      OT      -0.834000       15.9994           0
     19413 TIP3     3698     TIP3     H1       HT       0.417000       1.00800           0
     19414 TIP3     3698     TIP3     H2       HT       0.417000       1.00800           0
     19415 TIP3     3699     TIP3     OH2      OT      -0.834000       15.9994           0
     19416 TIP3     3699     TIP3     H1       HT       0.417000       1.00800           0
     19417 TIP3     3699     TIP3     H2       HT       0.417000       1.00800           0
     19418 TIP3     3700     TIP3     OH2      OT      -0.834000       15.9994           0
     19419 TIP3     3700     TIP3     H1       HT       0.417000       1.00800           0
     19420 TIP3     3700     TIP3     H2       HT       0.417000       1.00800           0
     19421 TIP3     3701     TIP3     OH2      OT      -0.834000       15.9994           0
     19422 TIP3     3701     TIP3     H1       HT       0.417000       1.00800           0
     19423 TIP3     3701     TIP3     H2       HT       0.417000       1.00800           0
     19424 TIP3     3702     TIP3     OH2      OT      -0.834000       15.9994           0
     19425 TIP3     3702     TIP3     H1       HT       0.417000       1.00800           0
     19426 TIP3     3702     TIP3     H2       HT       0.417000       1.00800           0
     19427 TIP3     3703     TIP3     OH2      OT      -0.834000       15.9994           0
     19428 TIP3     3703     TIP3     H1       HT       0.417000       1.00800           0
     19429 TIP3     3703     TIP3     H2       HT       0.417000       1.00800           0
     19430 TIP3     3704     TIP3     OH2      OT      -0.834000       15.9994           0
     19431 TIP3     3704     TIP3     H1       HT       0.417000       1.00800           0
     19432 TIP3     3704     TIP3     H2       HT       0.417000       1.00800           0
     19433 TIP3     3705     TIP3     OH2      OT      -0.834000       15.9994           0
     19434 TIP3     3705     TIP3     H1       HT       0.417000       1.00800           0
     19435 TIP3     3705     TIP3     H2       HT       0.417000       1.00800           0
     19436 TIP3     3706     TIP3     OH2      OT      -0.834000       15.9994           0
     19437 TIP3     3706     TIP3     H1       HT       0.417000       1.00800           0
     19438 TIP3     3706     TIP3     H2       HT       0.417000       1.00800           0
     19439 TIP3     3707     TIP3     OH2      OT      -0.834000       15.9994           0
     19440 TIP3     3707     TIP3     H1       HT       0.417000       1.00800           0
     19441 TIP3     3707     TIP3     H2       HT       0.417000       1.00800           0
     19442 TIP3     3708     TIP3     OH2      OT      -0.834000       15.9994           0
     19443 TIP3     3708     TIP3     H1       HT       0.417000       1.00800           0
     19444 TIP3     3708     TIP3     H2       HT       0.417000       1.00800           0
     19445 TIP3     3709     TIP3     OH2      OT      -0.834000       15.9994           0
     19446 TIP3     3709     TIP3     H1       HT       0.417000       1.00800           0
     19447 TIP3     3709     TIP3     H2       HT       0.417000       1.00800           0
     19448 TIP3     3710     TIP3     OH2      OT      -0.834000       15.9994           0
     19449 TIP3     3710     TIP3     H1       HT       0.417000       1.00800           0
     19450 TIP3     3710     TIP3     H2       HT       0.417000       1.00800           0
     19451 TIP3     3711     TIP3     OH2      OT      -0.834000       15.9994           0
     19452 TIP3     3711     TIP3     H1       HT       0.417000       1.00800           0
     19453 TIP3     3711     TIP3     H2       HT       0.417000       1.00800           0
     19454 TIP3     3712     TIP3     OH2      OT      -0.834000       15.9994           0
     19455 TIP3     3712     TIP3     H1       HT       0.417000       1.00800           0
     19456 TIP3     3712     TIP3     H2       HT       0.417000       1.00800           0
     19457 TIP3     3713     TIP3     OH2      OT      -0.834000       15.9994           0
     19458 TIP3     3713     TIP3     H1       HT       0.417000       1.00800           0
     19459 TIP3     3713     TIP3     H2       HT       0.417000       1.00800           0
     19460 TIP3     3714     TIP3     OH2      OT      -0.834000       15.9994           0
     19461 TIP3     3714     TIP3     H1       HT       0.417000       1.00800           0
     19462 TIP3     3714     TIP3     H2       HT       0.417000       1.00800           0
     19463 TIP3     3715     TIP3     OH2      OT      -0.834000       15.9994           0
     19464 TIP3     3715     TIP3     H1       HT       0.417000       1.00800           0
     19465 TIP3     3715     TIP3     H2       HT       0.417000       1.00800           0
     19466 TIP3     3716     TIP3     OH2      OT      -0.834000       15.9994           0
     19467 TIP3     3716     TIP3     H1       HT       0.417000       1.00800           0
     19468 TIP3     3716     TIP3     H2       HT       0.417000       1.00800           0
     19469 TIP3     3717     TIP3     OH2      OT      -0.834000       15.9994           0
     19470 TIP3     3717     TIP3     H1       HT       0.417000       1.00800           0
     19471 TIP3     3717     TIP3     H2       HT       0.417000       1.00800           0
     19472 TIP3     3718     TIP3     OH2      OT      -0.834000       15.9994           0
     19473 TIP3     3718     TIP3     H1       HT       0.417000       1.00800           0
     19474 TIP3     3718     TIP3     H2       HT       0.417000       1.00800           0
     19475 TIP3     3719     TIP3     OH2      OT      -0.834000       15.9994           0
     19476 TIP3     3719     TIP3     H1       HT       0.417000       1.00800           0
     19477 TIP3     3719     TIP3     H2       HT       0.417000       1.00800           0
     19478 TIP3     3720     TIP3     OH2      OT      -0.834000       15.9994           0
     19479 TIP3     3720     TIP3     H1       HT       0.417000       1.00800           0
     19480 TIP3     3720     TIP3     H2       HT       0.417000       1.00800           0
     19481 TIP3     3721     TIP3     OH2      OT      -0.834000       15.9994           0
     19482 TIP3     3721     TIP3     H1       HT       0.417000       1.00800           0
     19483 TIP3     3721     TIP3     H2       HT       0.417000       1.00800           0
     19484 TIP3     3722     TIP3     OH2      OT      -0.834000       15.9994           0
     19485 TIP3     3722     TIP3     H1       HT       0.417000       1.00800           0
     19486 TIP3     3722     TIP3     H2       HT       0.417000       1.00800           0
     19487 TIP3     3723     TIP3     OH2      OT      -0.834000       15.9994           0
     19488 TIP3     3723     TIP3     H1       HT       0.417000       1.00800           0
     19489 TIP3     3723     TIP3     H2       HT       0.417000       1.00800           0
     19490 TIP3     3724     TIP3     OH2      OT      -0.834000       15.9994           0
     19491 TIP3     3724     TIP3     H1       HT       0.417000       1.00800           0
     19492 TIP3     3724     TIP3     H2       HT       0.417000       1.00800           0
     19493 TIP3     3725     TIP3     OH2      OT      -0.834000       15.9994           0
     19494 TIP3     3725     TIP3     H1       HT       0.417000       1.00800           0
     19495 TIP3     3725     TIP3     H2       HT       0.417000       1.00800           0
     19496 TIP3     3726     TIP3     OH2      OT      -0.834000       15.9994           0
     19497 TIP3     3726     TIP3     H1       HT       0.417000       1.00800           0
     19498 TIP3     3726     TIP3     H2       HT       0.417000       1.00800           0
     19499 TIP3     3727     TIP3     OH2      OT      -0.834000       15.9994           0
     19500 TIP3     3727     TIP3     H1       HT       0.417000       1.00800           0
     19501 TIP3     3727     TIP3     H2       HT       0.417000       1.00800           0
     19502 TIP3     3728     TIP3     OH2      OT      -0.834000       15.9994           0
     19503 TIP3     3728     TIP3     H1       HT       0.417000       1.00800           0
     19504 TIP3     3728     TIP3     H2       HT       0.417000       1.00800           0
     19505 TIP3     3729     TIP3     OH2      OT      -0.834000       15.9994           0
     19506 TIP3     3729     TIP3     H1       HT       0.417000       1.00800           0
     19507 TIP3     3729     TIP3     H2       HT       0.417000       1.00800           0
     19508 TIP3     3730     TIP3     OH2      OT      -0.834000       15.9994           0
     19509 TIP3     3730     TIP3     H1       HT       0.417000       1.00800           0
     19510 TIP3     3730     TIP3     H2       HT       0.417000       1.00800           0
     19511 TIP3     3731     TIP3     OH2      OT      -0.834000       15.9994           0
     19512 TIP3     3731     TIP3     H1       HT       0.417000       1.00800           0
     19513 TIP3     3731     TIP3     H2       HT       0.417000       1.00800           0
     19514 TIP3     3732     TIP3     OH2      OT      -0.834000       15.9994           0
     19515 TIP3     3732     TIP3     H1       HT       0.417000       1.00800           0
     19516 TIP3     3732     TIP3     H2       HT       0.417000       1.00800           0
     19517 TIP3     3733     TIP3     OH2      OT      -0.834000       15.9994           0
     19518 TIP3     3733     TIP3     H1       HT       0.417000       1.00800           0
     19519 TIP3     3733     TIP3     H2       HT       0.417000       1.00800           0
     19520 TIP3     3734     TIP3     OH2      OT      -0.834000       15.9994           0
     19521 TIP3     3734     TIP3     H1       HT       0.417000       1.00800           0
     19522 TIP3     3734     TIP3     H2       HT       0.417000       1.00800           0
     19523 TIP3     3735     TIP3     OH2      OT      -0.834000       15.9994           0
     19524 TIP3     3735     TIP3     H1       HT       0.417000       1.00800           0
     19525 TIP3     3735     TIP3     H2       HT       0.417000       1.00800           0
     19526 TIP3     3736     TIP3     OH2      OT      -0.834000       15.9994           0
     19527 TIP3     3736     TIP3     H1       HT       0.417000       1.00800           0
     19528 TIP3     3736     TIP3     H2       HT       0.417000       1.00800           0
     19529 TIP3     3737     TIP3     OH2      OT      -0.834000       15.9994           0
     19530 TIP3     3737     TIP3     H1       HT       0.417000       1.00800           0
     19531 TIP3     3737     TIP3     H2       HT       0.417000       1.00800           0
     19532 TIP3     3738     TIP3     OH2      OT      -0.834000       15.9994           0
     19533 TIP3     3738     TIP3     H1       HT       0.417000       1.00800           0
     19534 TIP3     3738     TIP3     H2       HT       0.417000       1.00800           0
     19535 TIP3     3739     TIP3     OH2      OT      -0.834000       15.9994           0
     19536 TIP3     3739     TIP3     H1       HT       0.417000       1.00800           0
     19537 TIP3     3739     TIP3     H2       HT       0.417000       1.00800           0
     19538 TIP3     3740     TIP3     OH2      OT      -0.834000       15.9994           0
     19539 TIP3     3740     TIP3     H1       HT       0.417000       1.00800           0
     19540 TIP3     3740     TIP3     H2       HT       0.417000       1.00800           0
     19541 TIP3     3741     TIP3     OH2      OT      -0.834000       15.9994           0
     19542 TIP3     3741     TIP3     H1       HT       0.417000       1.00800           0
     19543 TIP3     3741     TIP3     H2       HT       0.417000       1.00800           0
     19544 TIP3     3742     TIP3     OH2      OT      -0.834000       15.9994           0
     19545 TIP3     3742     TIP3     H1       HT       0.417000       1.00800           0
     19546 TIP3     3742     TIP3     H2       HT       0.417000       1.00800           0
     19547 TIP3     3743     TIP3     OH2      OT      -0.834000       15.9994           0
     19548 TIP3     3743     TIP3     H1       HT       0.417000       1.00800           0
     19549 TIP3     3743     TIP3     H2       HT       0.417000       1.00800           0
     19550 TIP3     3744     TIP3     OH2      OT      -0.834000       15.9994           0
     19551 TIP3     3744     TIP3     H1       HT       0.417000       1.00800           0
     19552 TIP3     3744     TIP3     H2       HT       0.417000       1.00800           0
     19553 TIP3     3745     TIP3     OH2      OT      -0.834000       15.9994           0
     19554 TIP3     3745     TIP3     H1       HT       0.417000       1.00800           0
     19555 TIP3     3745     TIP3     H2       HT       0.417000       1.00800           0
     19556 TIP3     3746     TIP3     OH2      OT      -0.834000       15.9994           0
     19557 TIP3     3746     TIP3     H1       HT       0.417000       1.00800           0
     19558 TIP3     3746     TIP3     H2       HT       0.417000       1.00800           0
     19559 TIP3     3747     TIP3     OH2      OT      -0.834000       15.9994           0
     19560 TIP3     3747     TIP3     H1       HT       0.417000       1.00800           0
     19561 TIP3     3747     TIP3     H2       HT       0.417000       1.00800           0
     19562 TIP3     3748     TIP3     OH2      OT      -0.834000       15.9994           0
     19563 TIP3     3748     TIP3     H1       HT       0.417000       1.00800           0
     19564 TIP3     3748     TIP3     H2       HT       0.417000       1.00800           0
     19565 TIP3     3749     TIP3     OH2      OT      -0.834000       15.9994           0
     19566 TIP3     3749     TIP3     H1       HT       0.417000       1.00800           0
     19567 TIP3     3749     TIP3     H2       HT       0.417000       1.00800           0
     19568 TIP3     3750     TIP3     OH2      OT      -0.834000       15.9994           0
     19569 TIP3     3750     TIP3     H1       HT       0.417000       1.00800           0
     19570 TIP3     3750     TIP3     H2       HT       0.417000       1.00800           0
     19571 TIP3     3751     TIP3     OH2      OT      -0.834000       15.9994           0
     19572 TIP3     3751     TIP3     H1       HT       0.417000       1.00800           0
     19573 TIP3     3751     TIP3     H2       HT       0.417000       1.00800           0
     19574 TIP3     3752     TIP3     OH2      OT      -0.834000       15.9994           0
     19575 TIP3     3752     TIP3     H1       HT       0.417000       1.00800           0
     19576 TIP3     3752     TIP3     H2       HT       0.417000       1.00800           0
     19577 TIP3     3753     TIP3     OH2      OT      -0.834000       15.9994           0
     19578 TIP3     3753     TIP3     H1       HT       0.417000       1.00800           0
     19579 TIP3     3753     TIP3     H2       HT       0.417000       1.00800           0
     19580 TIP3     3754     TIP3     OH2      OT      -0.834000       15.9994           0
     19581 TIP3     3754     TIP3     H1       HT       0.417000       1.00800           0
     19582 TIP3     3754     TIP3     H2       HT       0.417000       1.00800           0
     19583 TIP3     3755     TIP3     OH2      OT      -0.834000       15.9994           0
     19584 TIP3     3755     TIP3     H1       HT       0.417000       1.00800           0
     19585 TIP3     3755     TIP3     H2       HT       0.417000       1.00800           0
     19586 TIP3     3756     TIP3     OH2      OT      -0.834000       15.9994           0
     19587 TIP3     3756     TIP3     H1       HT       0.417000       1.00800           0
     19588 TIP3     3756     TIP3     H2       HT       0.417000       1.00800           0
     19589 TIP3     3757     TIP3     OH2      OT      -0.834000       15.9994           0
     19590 TIP3     3757     TIP3     H1       HT       0.417000       1.00800           0
     19591 TIP3     3757     TIP3     H2       HT       0.417000       1.00800           0
     19592 TIP3     3758     TIP3     OH2      OT      -0.834000       15.9994           0
     19593 TIP3     3758     TIP3     H1       HT       0.417000       1.00800           0
     19594 TIP3     3758     TIP3     H2       HT       0.417000       1.00800           0
     19595 TIP3     3759     TIP3     OH2      OT      -0.834000       15.9994           0
     19596 TIP3     3759     TIP3     H1       HT       0.417000       1.00800           0
     19597 TIP3     3759     TIP3     H2       HT       0.417000       1.00800           0
     19598 TIP3     3760     TIP3     OH2      OT      -0.834000       15.9994           0
     19599 TIP3     3760     TIP3     H1       HT       0.417000       1.00800           0
     19600 TIP3     3760     TIP3     H2       HT       0.417000       1.00800           0
     19601 TIP3     3761     TIP3     OH2      OT      -0.834000       15.9994           0
     19602 TIP3     3761     TIP3     H1       HT       0.417000       1.00800           0
     19603 TIP3     3761     TIP3     H2       HT       0.417000       1.00800           0
     19604 TIP3     3762     TIP3     OH2      OT      -0.834000       15.9994           0
     19605 TIP3     3762     TIP3     H1       HT       0.417000       1.00800           0
     19606 TIP3     3762     TIP3     H2       HT       0.417000       1.00800           0
     19607 TIP3     3763     TIP3     OH2      OT      -0.834000       15.9994           0
     19608 TIP3     3763     TIP3     H1       HT       0.417000       1.00800           0
     19609 TIP3     3763     TIP3     H2       HT       0.417000       1.00800           0
     19610 TIP3     3764     TIP3     OH2      OT      -0.834000       15.9994           0
     19611 TIP3     3764     TIP3     H1       HT       0.417000       1.00800           0
     19612 TIP3     3764     TIP3     H2       HT       0.417000       1.00800           0
     19613 TIP3     3765     TIP3     OH2      OT      -0.834000       15.9994           0
     19614 TIP3     3765     TIP3     H1       HT       0.417000       1.00800           0
     19615 TIP3     3765     TIP3     H2       HT       0.417000       1.00800           0
     19616 TIP3     3766     TIP3     OH2      OT      -0.834000       15.9994           0
     19617 TIP3     3766     TIP3     H1       HT       0.417000       1.00800           0
     19618 TIP3     3766     TIP3     H2       HT       0.417000       1.00800           0
     19619 TIP3     3767     TIP3     OH2      OT      -0.834000       15.9994           0
     19620 TIP3     3767     TIP3     H1       HT       0.417000       1.00800           0
     19621 TIP3     3767     TIP3     H2       HT       0.417000       1.00800           0
     19622 TIP3     3768     TIP3     OH2      OT      -0.834000       15.9994           0
     19623 TIP3     3768     TIP3     H1       HT       0.417000       1.00800           0
     19624 TIP3     3768     TIP3     H2       HT       0.417000       1.00800           0
     19625 TIP3     3769     TIP3     OH2      OT      -0.834000       15.9994           0
     19626 TIP3     3769     TIP3     H1       HT       0.417000       1.00800           0
     19627 TIP3     3769     TIP3     H2       HT       0.417000       1.00800           0
     19628 TIP3     3770     TIP3     OH2      OT      -0.834000       15.9994           0
     19629 TIP3     3770     TIP3     H1       HT       0.417000       1.00800           0
     19630 TIP3     3770     TIP3     H2       HT       0.417000       1.00800           0
     19631 TIP3     3771     TIP3     OH2      OT      -0.834000       15.9994           0
     19632 TIP3     3771     TIP3     H1       HT       0.417000       1.00800           0
     19633 TIP3     3771     TIP3     H2       HT       0.417000       1.00800           0
     19634 TIP3     3772     TIP3     OH2      OT      -0.834000       15.9994           0
     19635 TIP3     3772     TIP3     H1       HT       0.417000       1.00800           0
     19636 TIP3     3772     TIP3     H2       HT       0.417000       1.00800           0
     19637 TIP3     3773     TIP3     OH2      OT      -0.834000       15.9994           0
     19638 TIP3     3773     TIP3     H1       HT       0.417000       1.00800           0
     19639 TIP3     3773     TIP3     H2       HT       0.417000       1.00800           0
     19640 TIP3     3774     TIP3     OH2      OT      -0.834000       15.9994           0
     19641 TIP3     3774     TIP3     H1       HT       0.417000       1.00800           0
     19642 TIP3     3774     TIP3     H2       HT       0.417000       1.00800           0
     19643 TIP3     3775     TIP3     OH2      OT      -0.834000       15.9994           0
     19644 TIP3     3775     TIP3     H1       HT       0.417000       1.00800           0
     19645 TIP3     3775     TIP3     H2       HT       0.417000       1.00800           0
     19646 TIP3     3776     TIP3     OH2      OT      -0.834000       15.9994           0
     19647 TIP3     3776     TIP3     H1       HT       0.417000       1.00800           0
     19648 TIP3     3776     TIP3     H2       HT       0.417000       1.00800           0
     19649 TIP3     3777     TIP3     OH2      OT      -0.834000       15.9994           0
     19650 TIP3     3777     TIP3     H1       HT       0.417000       1.00800           0
     19651 TIP3     3777     TIP3     H2       HT       0.417000       1.00800           0
     19652 TIP3     3778     TIP3     OH2      OT      -0.834000       15.9994           0
     19653 TIP3     3778     TIP3     H1       HT       0.417000       1.00800           0
     19654 TIP3     3778     TIP3     H2       HT       0.417000       1.00800           0
     19655 TIP3     3779     TIP3     OH2      OT      -0.834000       15.9994           0
     19656 TIP3     3779     TIP3     H1       HT       0.417000       1.00800           0
     19657 TIP3     3779     TIP3     H2       HT       0.417000       1.00800           0
     19658 TIP3     3780     TIP3     OH2      OT      -0.834000       15.9994           0
     19659 TIP3     3780     TIP3     H1       HT       0.417000       1.00800           0
     19660 TIP3     3780     TIP3     H2       HT       0.417000       1.00800           0
     19661 TIP3     3781     TIP3     OH2      OT      -0.834000       15.9994           0
     19662 TIP3     3781     TIP3     H1       HT       0.417000       1.00800           0
     19663 TIP3     3781     TIP3     H2       HT       0.417000       1.00800           0
     19664 TIP3     3782     TIP3     OH2      OT      -0.834000       15.9994           0
     19665 TIP3     3782     TIP3     H1       HT       0.417000       1.00800           0
     19666 TIP3     3782     TIP3     H2       HT       0.417000       1.00800           0
     19667 TIP3     3783     TIP3     OH2      OT      -0.834000       15.9994           0
     19668 TIP3     3783     TIP3     H1       HT       0.417000       1.00800           0
     19669 TIP3     3783     TIP3     H2       HT       0.417000       1.00800           0
     19670 TIP3     3784     TIP3     OH2      OT      -0.834000       15.9994           0
     19671 TIP3     3784     TIP3     H1       HT       0.417000       1.00800           0
     19672 TIP3     3784     TIP3     H2       HT       0.417000       1.00800           0
     19673 TIP3     3785     TIP3     OH2      OT      -0.834000       15.9994           0
     19674 TIP3     3785     TIP3     H1       HT       0.417000       1.00800           0
     19675 TIP3     3785     TIP3     H2       HT       0.417000       1.00800           0
     19676 TIP3     3786     TIP3     OH2      OT      -0.834000       15.9994           0
     19677 TIP3     3786     TIP3     H1       HT       0.417000       1.00800           0
     19678 TIP3     3786     TIP3     H2       HT       0.417000       1.00800           0
     19679 TIP3     3787     TIP3     OH2      OT      -0.834000       15.9994           0
     19680 TIP3     3787     TIP3     H1       HT       0.417000       1.00800           0
     19681 TIP3     3787     TIP3     H2       HT       0.417000       1.00800           0
     19682 TIP3     3788     TIP3     OH2      OT      -0.834000       15.9994           0
     19683 TIP3     3788     TIP3     H1       HT       0.417000       1.00800           0
     19684 TIP3     3788     TIP3     H2       HT       0.417000       1.00800           0
     19685 TIP3     3789     TIP3     OH2      OT      -0.834000       15.9994           0
     19686 TIP3     3789     TIP3     H1       HT       0.417000       1.00800           0
     19687 TIP3     3789     TIP3     H2       HT       0.417000       1.00800           0
     19688 TIP3     3790     TIP3     OH2      OT      -0.834000       15.9994           0
     19689 TIP3     3790     TIP3     H1       HT       0.417000       1.00800           0
     19690 TIP3     3790     TIP3     H2       HT       0.417000       1.00800           0
     19691 TIP3     3791     TIP3     OH2      OT      -0.834000       15.9994           0
     19692 TIP3     3791     TIP3     H1       HT       0.417000       1.00800           0
     19693 TIP3     3791     TIP3     H2       HT       0.417000       1.00800           0
     19694 TIP3     3792     TIP3     OH2      OT      -0.834000       15.9994           0
     19695 TIP3     3792     TIP3     H1       HT       0.417000       1.00800           0
     19696 TIP3     3792     TIP3     H2       HT       0.417000       1.00800           0
     19697 TIP3     3793     TIP3     OH2      OT      -0.834000       15.9994           0
     19698 TIP3     3793     TIP3     H1       HT       0.417000       1.00800           0
     19699 TIP3     3793     TIP3     H2       HT       0.417000       1.00800           0
     19700 TIP3     3794     TIP3     OH2      OT      -0.834000       15.9994           0
     19701 TIP3     3794     TIP3     H1       HT       0.417000       1.00800           0
     19702 TIP3     3794     TIP3     H2       HT       0.417000       1.00800           0
     19703 TIP3     3795     TIP3     OH2      OT      -0.834000       15.9994           0
     19704 TIP3     3795     TIP3     H1       HT       0.417000       1.00800           0
     19705 TIP3     3795     TIP3     H2       HT       0.417000       1.00800           0
     19706 TIP3     3796     TIP3     OH2      OT      -0.834000       15.9994           0
     19707 TIP3     3796     TIP3     H1       HT       0.417000       1.00800           0
     19708 TIP3     3796     TIP3     H2       HT       0.417000       1.00800           0
     19709 TIP3     3797     TIP3     OH2      OT      -0.834000       15.9994           0
     19710 TIP3     3797     TIP3     H1       HT       0.417000       1.00800           0
     19711 TIP3     3797     TIP3     H2       HT       0.417000       1.00800           0
     19712 TIP3     3798     TIP3     OH2      OT      -0.834000       15.9994           0
     19713 TIP3     3798     TIP3     H1       HT       0.417000       1.00800           0
     19714 TIP3     3798     TIP3     H2       HT       0.417000       1.00800           0
     19715 TIP3     3799     TIP3     OH2      OT      -0.834000       15.9994           0
     19716 TIP3     3799     TIP3     H1       HT       0.417000       1.00800           0
     19717 TIP3     3799     TIP3     H2       HT       0.417000       1.00800           0
     19718 TIP3     3800     TIP3     OH2      OT      -0.834000       15.9994           0
     19719 TIP3     3800     TIP3     H1       HT       0.417000       1.00800           0
     19720 TIP3     3800     TIP3     H2       HT       0.417000       1.00800           0
     19721 TIP3     3801     TIP3     OH2      OT      -0.834000       15.9994           0
     19722 TIP3     3801     TIP3     H1       HT       0.417000       1.00800           0
     19723 TIP3     3801     TIP3     H2       HT       0.417000       1.00800           0
     19724 TIP3     3802     TIP3     OH2      OT      -0.834000       15.9994           0
     19725 TIP3     3802     TIP3     H1       HT       0.417000       1.00800           0
     19726 TIP3     3802     TIP3     H2       HT       0.417000       1.00800           0
     19727 TIP3     3803     TIP3     OH2      OT      -0.834000       15.9994           0
     19728 TIP3     3803     TIP3     H1       HT       0.417000       1.00800           0
     19729 TIP3     3803     TIP3     H2       HT       0.417000       1.00800           0
     19730 TIP3     3804     TIP3     OH2      OT      -0.834000       15.9994           0
     19731 TIP3     3804     TIP3     H1       HT       0.417000       1.00800           0
     19732 TIP3     3804     TIP3     H2       HT       0.417000       1.00800           0
     19733 TIP3     3805     TIP3     OH2      OT      -0.834000       15.9994           0
     19734 TIP3     3805     TIP3     H1       HT       0.417000       1.00800           0
     19735 TIP3     3805     TIP3     H2       HT       0.417000       1.00800           0
     19736 TIP3     3806     TIP3     OH2      OT      -0.834000       15.9994           0
     19737 TIP3     3806     TIP3     H1       HT       0.417000       1.00800           0
     19738 TIP3     3806     TIP3     H2       HT       0.417000       1.00800           0
     19739 TIP3     3807     TIP3     OH2      OT      -0.834000       15.9994           0
     19740 TIP3     3807     TIP3     H1       HT       0.417000       1.00800           0
     19741 TIP3     3807     TIP3     H2       HT       0.417000       1.00800           0
     19742 TIP3     3808     TIP3     OH2      OT      -0.834000       15.9994           0
     19743 TIP3     3808     TIP3     H1       HT       0.417000       1.00800           0
     19744 TIP3     3808     TIP3     H2       HT       0.417000       1.00800           0
     19745 TIP3     3809     TIP3     OH2      OT      -0.834000       15.9994           0
     19746 TIP3     3809     TIP3     H1       HT       0.417000       1.00800           0
     19747 TIP3     3809     TIP3     H2       HT       0.417000       1.00800           0
     19748 TIP3     3810     TIP3     OH2      OT      -0.834000       15.9994           0
     19749 TIP3     3810     TIP3     H1       HT       0.417000       1.00800           0
     19750 TIP3     3810     TIP3     H2       HT       0.417000       1.00800           0
     19751 TIP3     3811     TIP3     OH2      OT      -0.834000       15.9994           0
     19752 TIP3     3811     TIP3     H1       HT       0.417000       1.00800           0
     19753 TIP3     3811     TIP3     H2       HT       0.417000       1.00800           0
     19754 TIP3     3812     TIP3     OH2      OT      -0.834000       15.9994           0
     19755 TIP3     3812     TIP3     H1       HT       0.417000       1.00800           0
     19756 TIP3     3812     TIP3     H2       HT       0.417000       1.00800           0
     19757 TIP3     3813     TIP3     OH2      OT      -0.834000       15.9994           0
     19758 TIP3     3813     TIP3     H1       HT       0.417000       1.00800           0
     19759 TIP3     3813     TIP3     H2       HT       0.417000       1.00800           0
     19760 TIP3     3814     TIP3     OH2      OT      -0.834000       15.9994           0
     19761 TIP3     3814     TIP3     H1       HT       0.417000       1.00800           0
     19762 TIP3     3814     TIP3     H2       HT       0.417000       1.00800           0
     19763 TIP3     3815     TIP3     OH2      OT      -0.834000       15.9994           0
     19764 TIP3     3815     TIP3     H1       HT       0.417000       1.00800           0
     19765 TIP3     3815     TIP3     H2       HT       0.417000       1.00800           0
     19766 TIP3     3816     TIP3     OH2      OT      -0.834000       15.9994           0
     19767 TIP3     3816     TIP3     H1       HT       0.417000       1.00800           0
     19768 TIP3     3816     TIP3     H2       HT       0.417000       1.00800           0
     19769 TIP3     3817     TIP3     OH2      OT      -0.834000       15.9994           0
     19770 TIP3     3817     TIP3     H1       HT       0.417000       1.00800           0
     19771 TIP3     3817     TIP3     H2       HT       0.417000       1.00800           0
     19772 TIP3     3818     TIP3     OH2      OT      -0.834000       15.9994           0
     19773 TIP3     3818     TIP3     H1       HT       0.417000       1.00800           0
     19774 TIP3     3818     TIP3     H2       HT       0.417000       1.00800           0
     19775 TIP3     3819     TIP3     OH2      OT      -0.834000       15.9994           0
     19776 TIP3     3819     TIP3     H1       HT       0.417000       1.00800           0
     19777 TIP3     3819     TIP3     H2       HT       0.417000       1.00800           0
     19778 TIP3     3820     TIP3     OH2      OT      -0.834000       15.9994           0
     19779 TIP3     3820     TIP3     H1       HT       0.417000       1.00800           0
     19780 TIP3     3820     TIP3     H2       HT       0.417000       1.00800           0
     19781 TIP3     3821     TIP3     OH2      OT      -0.834000       15.9994           0
     19782 TIP3     3821     TIP3     H1       HT       0.417000       1.00800           0
     19783 TIP3     3821     TIP3     H2       HT       0.417000       1.00800           0
     19784 TIP3     3822     TIP3     OH2      OT      -0.834000       15.9994           0
     19785 TIP3     3822     TIP3     H1       HT       0.417000       1.00800           0
     19786 TIP3     3822     TIP3     H2       HT       0.417000       1.00800           0
     19787 TIP3     3823     TIP3     OH2      OT      -0.834000       15.9994           0
     19788 TIP3     3823     TIP3     H1       HT       0.417000       1.00800           0
     19789 TIP3     3823     TIP3     H2       HT       0.417000       1.00800           0
     19790 TIP3     3824     TIP3     OH2      OT      -0.834000       15.9994           0
     19791 TIP3     3824     TIP3     H1       HT       0.417000       1.00800           0
     19792 TIP3     3824     TIP3     H2       HT       0.417000       1.00800           0
     19793 TIP3     3825     TIP3     OH2      OT      -0.834000       15.9994           0
     19794 TIP3     3825     TIP3     H1       HT       0.417000       1.00800           0
     19795 TIP3     3825     TIP3     H2       HT       0.417000       1.00800           0
     19796 TIP3     3826     TIP3     OH2      OT      -0.834000       15.9994           0
     19797 TIP3     3826     TIP3     H1       HT       0.417000       1.00800           0
     19798 TIP3     3826     TIP3     H2       HT       0.417000       1.00800           0
     19799 TIP3     3827     TIP3     OH2      OT      -0.834000       15.9994           0
     19800 TIP3     3827     TIP3     H1       HT       0.417000       1.00800           0
     19801 TIP3     3827     TIP3     H2       HT       0.417000       1.00800           0
     19802 TIP3     3828     TIP3     OH2      OT      -0.834000       15.9994           0
     19803 TIP3     3828     TIP3     H1       HT       0.417000       1.00800           0
     19804 TIP3     3828     TIP3     H2       HT       0.417000       1.00800           0
     19805 TIP3     3829     TIP3     OH2      OT      -0.834000       15.9994           0
     19806 TIP3     3829     TIP3     H1       HT       0.417000       1.00800           0
     19807 TIP3     3829     TIP3     H2       HT       0.417000       1.00800           0
     19808 TIP3     3830     TIP3     OH2      OT      -0.834000       15.9994           0
     19809 TIP3     3830     TIP3     H1       HT       0.417000       1.00800           0
     19810 TIP3     3830     TIP3     H2       HT       0.417000       1.00800           0
     19811 TIP3     3831     TIP3     OH2      OT      -0.834000       15.9994           0
     19812 TIP3     3831     TIP3     H1       HT       0.417000       1.00800           0
     19813 TIP3     3831     TIP3     H2       HT       0.417000       1.00800           0
     19814 TIP3     3832     TIP3     OH2      OT      -0.834000       15.9994           0
     19815 TIP3     3832     TIP3     H1       HT       0.417000       1.00800           0
     19816 TIP3     3832     TIP3     H2       HT       0.417000       1.00800           0
     19817 TIP3     3833     TIP3     OH2      OT      -0.834000       15.9994           0
     19818 TIP3     3833     TIP3     H1       HT       0.417000       1.00800           0
     19819 TIP3     3833     TIP3     H2       HT       0.417000       1.00800           0
     19820 TIP3     3834     TIP3     OH2      OT      -0.834000       15.9994           0
     19821 TIP3     3834     TIP3     H1       HT       0.417000       1.00800           0
     19822 TIP3     3834     TIP3     H2       HT       0.417000       1.00800           0
     19823 TIP3     3835     TIP3     OH2      OT      -0.834000       15.9994           0
     19824 TIP3     3835     TIP3     H1       HT       0.417000       1.00800           0
     19825 TIP3     3835     TIP3     H2       HT       0.417000       1.00800           0
     19826 TIP3     3836     TIP3     OH2      OT      -0.834000       15.9994           0
     19827 TIP3     3836     TIP3     H1       HT       0.417000       1.00800           0
     19828 TIP3     3836     TIP3     H2       HT       0.417000       1.00800           0
     19829 TIP3     3837     TIP3     OH2      OT      -0.834000       15.9994           0
     19830 TIP3     3837     TIP3     H1       HT       0.417000       1.00800           0
     19831 TIP3     3837     TIP3     H2       HT       0.417000       1.00800           0
     19832 TIP3     3838     TIP3     OH2      OT      -0.834000       15.9994           0
     19833 TIP3     3838     TIP3     H1       HT       0.417000       1.00800           0
     19834 TIP3     3838     TIP3     H2       HT       0.417000       1.00800           0
     19835 TIP3     3839     TIP3     OH2      OT      -0.834000       15.9994           0
     19836 TIP3     3839     TIP3     H1       HT       0.417000       1.00800           0
     19837 TIP3     3839     TIP3     H2       HT       0.417000       1.00800           0
     19838 TIP3     3840     TIP3     OH2      OT      -0.834000       15.9994           0
     19839 TIP3     3840     TIP3     H1       HT       0.417000       1.00800           0
     19840 TIP3     3840     TIP3     H2       HT       0.417000       1.00800           0
     19841 TIP3     3841     TIP3     OH2      OT      -0.834000       15.9994           0
     19842 TIP3     3841     TIP3     H1       HT       0.417000       1.00800           0
     19843 TIP3     3841     TIP3     H2       HT       0.417000       1.00800           0
     19844 TIP3     3842     TIP3     OH2      OT      -0.834000       15.9994           0
     19845 TIP3     3842     TIP3     H1       HT       0.417000       1.00800           0
     19846 TIP3     3842     TIP3     H2       HT       0.417000       1.00800           0
     19847 TIP3     3843     TIP3     OH2      OT      -0.834000       15.9994           0
     19848 TIP3     3843     TIP3     H1       HT       0.417000       1.00800           0
     19849 TIP3     3843     TIP3     H2       HT       0.417000       1.00800           0
     19850 TIP3     3844     TIP3     OH2      OT      -0.834000       15.9994           0
     19851 TIP3     3844     TIP3     H1       HT       0.417000       1.00800           0
     19852 TIP3     3844     TIP3     H2       HT       0.417000       1.00800           0
     19853 TIP3     3845     TIP3     OH2      OT      -0.834000       15.9994           0
     19854 TIP3     3845     TIP3     H1       HT       0.417000       1.00800           0
     19855 TIP3     3845     TIP3     H2       HT       0.417000       1.00800           0
     19856 TIP3     3846     TIP3     OH2      OT      -0.834000       15.9994           0
     19857 TIP3     3846     TIP3     H1       HT       0.417000       1.00800           0
     19858 TIP3     3846     TIP3     H2       HT       0.417000       1.00800           0
     19859 TIP3     3847     TIP3     OH2      OT      -0.834000       15.9994           0
     19860 TIP3     3847     TIP3     H1       HT       0.417000       1.00800           0
     19861 TIP3     3847     TIP3     H2       HT       0.417000       1.00800           0
     19862 TIP3     3848     TIP3     OH2      OT      -0.834000       15.9994           0
     19863 TIP3     3848     TIP3     H1       HT       0.417000       1.00800           0
     19864 TIP3     3848     TIP3     H2       HT       0.417000       1.00800           0
     19865 TIP3     3849     TIP3     OH2      OT      -0.834000       15.9994           0
     19866 TIP3     3849     TIP3     H1       HT       0.417000       1.00800           0
     19867 TIP3     3849     TIP3     H2       HT       0.417000       1.00800           0
     19868 TIP3     3850     TIP3     OH2      OT      -0.834000       15.9994           0
     19869 TIP3     3850     TIP3     H1       HT       0.417000       1.00800           0
     19870 TIP3     3850     TIP3     H2       HT       0.417000       1.00800           0
     19871 TIP3     3851     TIP3     OH2      OT      -0.834000       15.9994           0
     19872 TIP3     3851     TIP3     H1       HT       0.417000       1.00800           0
     19873 TIP3     3851     TIP3     H2       HT       0.417000       1.00800           0
     19874 TIP3     3852     TIP3     OH2      OT      -0.834000       15.9994           0
     19875 TIP3     3852     TIP3     H1       HT       0.417000       1.00800           0
     19876 TIP3     3852     TIP3     H2       HT       0.417000       1.00800           0
     19877 TIP3     3853     TIP3     OH2      OT      -0.834000       15.9994           0
     19878 TIP3     3853     TIP3     H1       HT       0.417000       1.00800           0
     19879 TIP3     3853     TIP3     H2       HT       0.417000       1.00800           0
     19880 TIP3     3854     TIP3     OH2      OT      -0.834000       15.9994           0
     19881 TIP3     3854     TIP3     H1       HT       0.417000       1.00800           0
     19882 TIP3     3854     TIP3     H2       HT       0.417000       1.00800           0
     19883 TIP3     3855     TIP3     OH2      OT      -0.834000       15.9994           0
     19884 TIP3     3855     TIP3     H1       HT       0.417000       1.00800           0
     19885 TIP3     3855     TIP3     H2       HT       0.417000       1.00800           0
     19886 TIP3     3856     TIP3     OH2      OT      -0.834000       15.9994           0
     19887 TIP3     3856     TIP3     H1       HT       0.417000       1.00800           0
     19888 TIP3     3856     TIP3     H2       HT       0.417000       1.00800           0
     19889 TIP3     3857     TIP3     OH2      OT      -0.834000       15.9994           0
     19890 TIP3     3857     TIP3     H1       HT       0.417000       1.00800           0
     19891 TIP3     3857     TIP3     H2       HT       0.417000       1.00800           0
     19892 TIP3     3858     TIP3     OH2      OT      -0.834000       15.9994           0
     19893 TIP3     3858     TIP3     H1       HT       0.417000       1.00800           0
     19894 TIP3     3858     TIP3     H2       HT       0.417000       1.00800           0
     19895 TIP3     3859     TIP3     OH2      OT      -0.834000       15.9994           0
     19896 TIP3     3859     TIP3     H1       HT       0.417000       1.00800           0
     19897 TIP3     3859     TIP3     H2       HT       0.417000       1.00800           0
     19898 TIP3     3860     TIP3     OH2      OT      -0.834000       15.9994           0
     19899 TIP3     3860     TIP3     H1       HT       0.417000       1.00800           0
     19900 TIP3     3860     TIP3     H2       HT       0.417000       1.00800           0
     19901 TIP3     3861     TIP3     OH2      OT      -0.834000       15.9994           0
     19902 TIP3     3861     TIP3     H1       HT       0.417000       1.00800           0
     19903 TIP3     3861     TIP3     H2       HT       0.417000       1.00800           0
     19904 TIP3     3862     TIP3     OH2      OT      -0.834000       15.9994           0
     19905 TIP3     3862     TIP3     H1       HT       0.417000       1.00800           0
     19906 TIP3     3862     TIP3     H2       HT       0.417000       1.00800           0
     19907 TIP3     3863     TIP3     OH2      OT      -0.834000       15.9994           0
     19908 TIP3     3863     TIP3     H1       HT       0.417000       1.00800           0
     19909 TIP3     3863     TIP3     H2       HT       0.417000       1.00800           0
     19910 TIP3     3864     TIP3     OH2      OT      -0.834000       15.9994           0
     19911 TIP3     3864     TIP3     H1       HT       0.417000       1.00800           0
     19912 TIP3     3864     TIP3     H2       HT       0.417000       1.00800           0
     19913 TIP3     3865     TIP3     OH2      OT      -0.834000       15.9994           0
     19914 TIP3     3865     TIP3     H1       HT       0.417000       1.00800           0
     19915 TIP3     3865     TIP3     H2       HT       0.417000       1.00800           0
     19916 TIP3     3866     TIP3     OH2      OT      -0.834000       15.9994           0
     19917 TIP3     3866     TIP3     H1       HT       0.417000       1.00800           0
     19918 TIP3     3866     TIP3     H2       HT       0.417000       1.00800           0
     19919 TIP3     3867     TIP3     OH2      OT      -0.834000       15.9994           0
     19920 TIP3     3867     TIP3     H1       HT       0.417000       1.00800           0
     19921 TIP3     3867     TIP3     H2       HT       0.417000       1.00800           0
     19922 TIP3     3868     TIP3     OH2      OT      -0.834000       15.9994           0
     19923 TIP3     3868     TIP3     H1       HT       0.417000       1.00800           0
     19924 TIP3     3868     TIP3     H2       HT       0.417000       1.00800           0
     19925 TIP3     3869     TIP3     OH2      OT      -0.834000       15.9994           0
     19926 TIP3     3869     TIP3     H1       HT       0.417000       1.00800           0
     19927 TIP3     3869     TIP3     H2       HT       0.417000       1.00800           0
     19928 TIP3     3870     TIP3     OH2      OT      -0.834000       15.9994           0
     19929 TIP3     3870     TIP3     H1       HT       0.417000       1.00800           0
     19930 TIP3     3870     TIP3     H2       HT       0.417000       1.00800           0
     19931 TIP3     3871     TIP3     OH2      OT      -0.834000       15.9994           0
     19932 TIP3     3871     TIP3     H1       HT       0.417000       1.00800           0
     19933 TIP3     3871     TIP3     H2       HT       0.417000       1.00800           0
     19934 TIP3     3872     TIP3     OH2      OT      -0.834000       15.9994           0
     19935 TIP3     3872     TIP3     H1       HT       0.417000       1.00800           0
     19936 TIP3     3872     TIP3     H2       HT       0.417000       1.00800           0
     19937 TIP3     3873     TIP3     OH2      OT      -0.834000       15.9994           0
     19938 TIP3     3873     TIP3     H1       HT       0.417000       1.00800           0
     19939 TIP3     3873     TIP3     H2       HT       0.417000       1.00800           0
     19940 TIP3     3874     TIP3     OH2      OT      -0.834000       15.9994           0
     19941 TIP3     3874     TIP3     H1       HT       0.417000       1.00800           0
     19942 TIP3     3874     TIP3     H2       HT       0.417000       1.00800           0
     19943 TIP3     3875     TIP3     OH2      OT      -0.834000       15.9994           0
     19944 TIP3     3875     TIP3     H1       HT       0.417000       1.00800           0
     19945 TIP3     3875     TIP3     H2       HT       0.417000       1.00800           0
     19946 TIP3     3876     TIP3     OH2      OT      -0.834000       15.9994           0
     19947 TIP3     3876     TIP3     H1       HT       0.417000       1.00800           0
     19948 TIP3     3876     TIP3     H2       HT       0.417000       1.00800           0
     19949 TIP3     3877     TIP3     OH2      OT      -0.834000       15.9994           0
     19950 TIP3     3877     TIP3     H1       HT       0.417000       1.00800           0
     19951 TIP3     3877     TIP3     H2       HT       0.417000       1.00800           0
     19952 TIP3     3878     TIP3     OH2      OT      -0.834000       15.9994           0
     19953 TIP3     3878     TIP3     H1       HT       0.417000       1.00800           0
     19954 TIP3     3878     TIP3     H2       HT       0.417000       1.00800           0
     19955 TIP3     3879     TIP3     OH2      OT      -0.834000       15.9994           0
     19956 TIP3     3879     TIP3     H1       HT       0.417000       1.00800           0
     19957 TIP3     3879     TIP3     H2       HT       0.417000       1.00800           0
     19958 TIP3     3880     TIP3     OH2      OT      -0.834000       15.9994           0
     19959 TIP3     3880     TIP3     H1       HT       0.417000       1.00800           0
     19960 TIP3     3880     TIP3     H2       HT       0.417000       1.00800           0
     19961 TIP3     3881     TIP3     OH2      OT      -0.834000       15.9994           0
     19962 TIP3     3881     TIP3     H1       HT       0.417000       1.00800           0
     19963 TIP3     3881     TIP3     H2       HT       0.417000       1.00800           0
     19964 TIP3     3882     TIP3     OH2      OT      -0.834000       15.9994           0
     19965 TIP3     3882     TIP3     H1       HT       0.417000       1.00800           0
     19966 TIP3     3882     TIP3     H2       HT       0.417000       1.00800           0
     19967 TIP3     3883     TIP3     OH2      OT      -0.834000       15.9994           0
     19968 TIP3     3883     TIP3     H1       HT       0.417000       1.00800           0
     19969 TIP3     3883     TIP3     H2       HT       0.417000       1.00800           0
     19970 TIP3     3884     TIP3     OH2      OT      -0.834000       15.9994           0
     19971 TIP3     3884     TIP3     H1       HT       0.417000       1.00800           0
     19972 TIP3     3884     TIP3     H2       HT       0.417000       1.00800           0
     19973 TIP3     3885     TIP3     OH2      OT      -0.834000       15.9994           0
     19974 TIP3     3885     TIP3     H1       HT       0.417000       1.00800           0
     19975 TIP3     3885     TIP3     H2       HT       0.417000       1.00800           0
     19976 TIP3     3886     TIP3     OH2      OT      -0.834000       15.9994           0
     19977 TIP3     3886     TIP3     H1       HT       0.417000       1.00800           0
     19978 TIP3     3886     TIP3     H2       HT       0.417000       1.00800           0
     19979 TIP3     3887     TIP3     OH2      OT      -0.834000       15.9994           0
     19980 TIP3     3887     TIP3     H1       HT       0.417000       1.00800           0
     19981 TIP3     3887     TIP3     H2       HT       0.417000       1.00800           0
     19982 TIP3     3888     TIP3     OH2      OT      -0.834000       15.9994           0
     19983 TIP3     3888     TIP3     H1       HT       0.417000       1.00800           0
     19984 TIP3     3888     TIP3     H2       HT       0.417000       1.00800           0
     19985 TIP3     3889     TIP3     OH2      OT      -0.834000       15.9994           0
     19986 TIP3     3889     TIP3     H1       HT       0.417000       1.00800           0
     19987 TIP3     3889     TIP3     H2       HT       0.417000       1.00800           0
     19988 TIP3     3890     TIP3     OH2      OT      -0.834000       15.9994           0
     19989 TIP3     3890     TIP3     H1       HT       0.417000       1.00800           0
     19990 TIP3     3890     TIP3     H2       HT       0.417000       1.00800           0
     19991 TIP3     3891     TIP3     OH2      OT      -0.834000       15.9994           0
     19992 TIP3     3891     TIP3     H1       HT       0.417000       1.00800           0
     19993 TIP3     3891     TIP3     H2       HT       0.417000       1.00800           0
     19994 TIP3     3892     TIP3     OH2      OT      -0.834000       15.9994           0
     19995 TIP3     3892     TIP3     H1       HT       0.417000       1.00800           0
     19996 TIP3     3892     TIP3     H2       HT       0.417000       1.00800           0
     19997 TIP3     3893     TIP3     OH2      OT      -0.834000       15.9994           0
     19998 TIP3     3893     TIP3     H1       HT       0.417000       1.00800           0
     19999 TIP3     3893     TIP3     H2       HT       0.417000       1.00800           0
     20000 TIP3     3894     TIP3     OH2      OT      -0.834000       15.9994           0
     20001 TIP3     3894     TIP3     H1       HT       0.417000       1.00800           0
     20002 TIP3     3894     TIP3     H2       HT       0.417000       1.00800           0
     20003 TIP3     3895     TIP3     OH2      OT      -0.834000       15.9994           0
     20004 TIP3     3895     TIP3     H1       HT       0.417000       1.00800           0
     20005 TIP3     3895     TIP3     H2       HT       0.417000       1.00800           0
     20006 TIP3     3896     TIP3     OH2      OT      -0.834000       15.9994           0
     20007 TIP3     3896     TIP3     H1       HT       0.417000       1.00800           0
     20008 TIP3     3896     TIP3     H2       HT       0.417000       1.00800           0
     20009 TIP3     3897     TIP3     OH2      OT      -0.834000       15.9994           0
     20010 TIP3     3897     TIP3     H1       HT       0.417000       1.00800           0
     20011 TIP3     3897     TIP3     H2       HT       0.417000       1.00800           0
     20012 TIP3     3898     TIP3     OH2      OT      -0.834000       15.9994           0
     20013 TIP3     3898     TIP3     H1       HT       0.417000       1.00800           0
     20014 TIP3     3898     TIP3     H2       HT       0.417000       1.00800           0
     20015 TIP3     3899     TIP3     OH2      OT      -0.834000       15.9994           0
     20016 TIP3     3899     TIP3     H1       HT       0.417000       1.00800           0
     20017 TIP3     3899     TIP3     H2       HT       0.417000       1.00800           0
     20018 TIP3     3900     TIP3     OH2      OT      -0.834000       15.9994           0
     20019 TIP3     3900     TIP3     H1       HT       0.417000       1.00800           0
     20020 TIP3     3900     TIP3     H2       HT       0.417000       1.00800           0
     20021 TIP3     3901     TIP3     OH2      OT      -0.834000       15.9994           0
     20022 TIP3     3901     TIP3     H1       HT       0.417000       1.00800           0
     20023 TIP3     3901     TIP3     H2       HT       0.417000       1.00800           0
     20024 TIP3     3902     TIP3     OH2      OT      -0.834000       15.9994           0
     20025 TIP3     3902     TIP3     H1       HT       0.417000       1.00800           0
     20026 TIP3     3902     TIP3     H2       HT       0.417000       1.00800           0
     20027 TIP3     3903     TIP3     OH2      OT      -0.834000       15.9994           0
     20028 TIP3     3903     TIP3     H1       HT       0.417000       1.00800           0
     20029 TIP3     3903     TIP3     H2       HT       0.417000       1.00800           0
     20030 TIP3     3904     TIP3     OH2      OT      -0.834000       15.9994           0
     20031 TIP3     3904     TIP3     H1       HT       0.417000       1.00800           0
     20032 TIP3     3904     TIP3     H2       HT       0.417000       1.00800           0
     20033 TIP3     3905     TIP3     OH2      OT      -0.834000       15.9994           0
     20034 TIP3     3905     TIP3     H1       HT       0.417000       1.00800           0
     20035 TIP3     3905     TIP3     H2       HT       0.417000       1.00800           0
     20036 TIP3     3906     TIP3     OH2      OT      -0.834000       15.9994           0
     20037 TIP3     3906     TIP3     H1       HT       0.417000       1.00800           0
     20038 TIP3     3906     TIP3     H2       HT       0.417000       1.00800           0
     20039 TIP3     3907     TIP3     OH2      OT      -0.834000       15.9994           0
     20040 TIP3     3907     TIP3     H1       HT       0.417000       1.00800           0
     20041 TIP3     3907     TIP3     H2       HT       0.417000       1.00800           0
     20042 TIP3     3908     TIP3     OH2      OT      -0.834000       15.9994           0
     20043 TIP3     3908     TIP3     H1       HT       0.417000       1.00800           0
     20044 TIP3     3908     TIP3     H2       HT       0.417000       1.00800           0
     20045 TIP3     3909     TIP3     OH2      OT      -0.834000       15.9994           0
     20046 TIP3     3909     TIP3     H1       HT       0.417000       1.00800           0
     20047 TIP3     3909     TIP3     H2       HT       0.417000       1.00800           0
     20048 TIP3     3910     TIP3     OH2      OT      -0.834000       15.9994           0
     20049 TIP3     3910     TIP3     H1       HT       0.417000       1.00800           0
     20050 TIP3     3910     TIP3     H2       HT       0.417000       1.00800           0
     20051 TIP3     3911     TIP3     OH2      OT      -0.834000       15.9994           0
     20052 TIP3     3911     TIP3     H1       HT       0.417000       1.00800           0
     20053 TIP3     3911     TIP3     H2       HT       0.417000       1.00800           0
     20054 TIP3     3912     TIP3     OH2      OT      -0.834000       15.9994           0
     20055 TIP3     3912     TIP3     H1       HT       0.417000       1.00800           0
     20056 TIP3     3912     TIP3     H2       HT       0.417000       1.00800           0
     20057 TIP3     3913     TIP3     OH2      OT      -0.834000       15.9994           0
     20058 TIP3     3913     TIP3     H1       HT       0.417000       1.00800           0
     20059 TIP3     3913     TIP3     H2       HT       0.417000       1.00800           0
     20060 TIP3     3914     TIP3     OH2      OT      -0.834000       15.9994           0
     20061 TIP3     3914     TIP3     H1       HT       0.417000       1.00800           0
     20062 TIP3     3914     TIP3     H2       HT       0.417000       1.00800           0
     20063 TIP3     3915     TIP3     OH2      OT      -0.834000       15.9994           0
     20064 TIP3     3915     TIP3     H1       HT       0.417000       1.00800           0
     20065 TIP3     3915     TIP3     H2       HT       0.417000       1.00800           0
     20066 TIP3     3916     TIP3     OH2      OT      -0.834000       15.9994           0
     20067 TIP3     3916     TIP3     H1       HT       0.417000       1.00800           0
     20068 TIP3     3916     TIP3     H2       HT       0.417000       1.00800           0
     20069 TIP3     3917     TIP3     OH2      OT      -0.834000       15.9994           0
     20070 TIP3     3917     TIP3     H1       HT       0.417000       1.00800           0
     20071 TIP3     3917     TIP3     H2       HT       0.417000       1.00800           0
     20072 TIP3     3918     TIP3     OH2      OT      -0.834000       15.9994           0
     20073 TIP3     3918     TIP3     H1       HT       0.417000       1.00800           0
     20074 TIP3     3918     TIP3     H2       HT       0.417000       1.00800           0
     20075 TIP3     3919     TIP3     OH2      OT      -0.834000       15.9994           0
     20076 TIP3     3919     TIP3     H1       HT       0.417000       1.00800           0
     20077 TIP3     3919     TIP3     H2       HT       0.417000       1.00800           0
     20078 TIP3     3920     TIP3     OH2      OT      -0.834000       15.9994           0
     20079 TIP3     3920     TIP3     H1       HT       0.417000       1.00800           0
     20080 TIP3     3920     TIP3     H2       HT       0.417000       1.00800           0
     20081 TIP3     3921     TIP3     OH2      OT      -0.834000       15.9994           0
     20082 TIP3     3921     TIP3     H1       HT       0.417000       1.00800           0
     20083 TIP3     3921     TIP3     H2       HT       0.417000       1.00800           0
     20084 TIP3     3922     TIP3     OH2      OT      -0.834000       15.9994           0
     20085 TIP3     3922     TIP3     H1       HT       0.417000       1.00800           0
     20086 TIP3     3922     TIP3     H2       HT       0.417000       1.00800           0
     20087 TIP3     3923     TIP3     OH2      OT      -0.834000       15.9994           0
     20088 TIP3     3923     TIP3     H1       HT       0.417000       1.00800           0
     20089 TIP3     3923     TIP3     H2       HT       0.417000       1.00800           0
     20090 TIP3     3924     TIP3     OH2      OT      -0.834000       15.9994           0
     20091 TIP3     3924     TIP3     H1       HT       0.417000       1.00800           0
     20092 TIP3     3924     TIP3     H2       HT       0.417000       1.00800           0
     20093 TIP3     3925     TIP3     OH2      OT      -0.834000       15.9994           0
     20094 TIP3     3925     TIP3     H1       HT       0.417000       1.00800           0
     20095 TIP3     3925     TIP3     H2       HT       0.417000       1.00800           0
     20096 TIP3     3926     TIP3     OH2      OT      -0.834000       15.9994           0
     20097 TIP3     3926     TIP3     H1       HT       0.417000       1.00800           0
     20098 TIP3     3926     TIP3     H2       HT       0.417000       1.00800           0
     20099 TIP3     3927     TIP3     OH2      OT      -0.834000       15.9994           0
     20100 TIP3     3927     TIP3     H1       HT       0.417000       1.00800           0
     20101 TIP3     3927     TIP3     H2       HT       0.417000       1.00800           0
     20102 TIP3     3928     TIP3     OH2      OT      -0.834000       15.9994           0
     20103 TIP3     3928     TIP3     H1       HT       0.417000       1.00800           0
     20104 TIP3     3928     TIP3     H2       HT       0.417000       1.00800           0
     20105 TIP3     3929     TIP3     OH2      OT      -0.834000       15.9994           0
     20106 TIP3     3929     TIP3     H1       HT       0.417000       1.00800           0
     20107 TIP3     3929     TIP3     H2       HT       0.417000       1.00800           0
     20108 TIP3     3930     TIP3     OH2      OT      -0.834000       15.9994           0
     20109 TIP3     3930     TIP3     H1       HT       0.417000       1.00800           0
     20110 TIP3     3930     TIP3     H2       HT       0.417000       1.00800           0
     20111 TIP3     3931     TIP3     OH2      OT      -0.834000       15.9994           0
     20112 TIP3     3931     TIP3     H1       HT       0.417000       1.00800           0
     20113 TIP3     3931     TIP3     H2       HT       0.417000       1.00800           0
     20114 TIP3     3932     TIP3     OH2      OT      -0.834000       15.9994           0
     20115 TIP3     3932     TIP3     H1       HT       0.417000       1.00800           0
     20116 TIP3     3932     TIP3     H2       HT       0.417000       1.00800           0
     20117 TIP3     3933     TIP3     OH2      OT      -0.834000       15.9994           0
     20118 TIP3     3933     TIP3     H1       HT       0.417000       1.00800           0
     20119 TIP3     3933     TIP3     H2       HT       0.417000       1.00800           0
     20120 TIP3     3934     TIP3     OH2      OT      -0.834000       15.9994           0
     20121 TIP3     3934     TIP3     H1       HT       0.417000       1.00800           0
     20122 TIP3     3934     TIP3     H2       HT       0.417000       1.00800           0
     20123 TIP3     3935     TIP3     OH2      OT      -0.834000       15.9994           0
     20124 TIP3     3935     TIP3     H1       HT       0.417000       1.00800           0
     20125 TIP3     3935     TIP3     H2       HT       0.417000       1.00800           0
     20126 TIP3     3936     TIP3     OH2      OT      -0.834000       15.9994           0
     20127 TIP3     3936     TIP3     H1       HT       0.417000       1.00800           0
     20128 TIP3     3936     TIP3     H2       HT       0.417000       1.00800           0
     20129 TIP3     3937     TIP3     OH2      OT      -0.834000       15.9994           0
     20130 TIP3     3937     TIP3     H1       HT       0.417000       1.00800           0
     20131 TIP3     3937     TIP3     H2       HT       0.417000       1.00800           0
     20132 TIP3     3938     TIP3     OH2      OT      -0.834000       15.9994           0
     20133 TIP3     3938     TIP3     H1       HT       0.417000       1.00800           0
     20134 TIP3     3938     TIP3     H2       HT       0.417000       1.00800           0
     20135 TIP3     3939     TIP3     OH2      OT      -0.834000       15.9994           0
     20136 TIP3     3939     TIP3     H1       HT       0.417000       1.00800           0
     20137 TIP3     3939     TIP3     H2       HT       0.417000       1.00800           0
     20138 TIP3     3940     TIP3     OH2      OT      -0.834000       15.9994           0
     20139 TIP3     3940     TIP3     H1       HT       0.417000       1.00800           0
     20140 TIP3     3940     TIP3     H2       HT       0.417000       1.00800           0
     20141 TIP3     3941     TIP3     OH2      OT      -0.834000       15.9994           0
     20142 TIP3     3941     TIP3     H1       HT       0.417000       1.00800           0
     20143 TIP3     3941     TIP3     H2       HT       0.417000       1.00800           0
     20144 TIP3     3942     TIP3     OH2      OT      -0.834000       15.9994           0
     20145 TIP3     3942     TIP3     H1       HT       0.417000       1.00800           0
     20146 TIP3     3942     TIP3     H2       HT       0.417000       1.00800           0
     20147 TIP3     3943     TIP3     OH2      OT      -0.834000       15.9994           0
     20148 TIP3     3943     TIP3     H1       HT       0.417000       1.00800           0
     20149 TIP3     3943     TIP3     H2       HT       0.417000       1.00800           0
     20150 TIP3     3944     TIP3     OH2      OT      -0.834000       15.9994           0
     20151 TIP3     3944     TIP3     H1       HT       0.417000       1.00800           0
     20152 TIP3     3944     TIP3     H2       HT       0.417000       1.00800           0
     20153 TIP3     3945     TIP3     OH2      OT      -0.834000       15.9994           0
     20154 TIP3     3945     TIP3     H1       HT       0.417000       1.00800           0
     20155 TIP3     3945     TIP3     H2       HT       0.417000       1.00800           0
     20156 TIP3     3946     TIP3     OH2      OT      -0.834000       15.9994           0
     20157 TIP3     3946     TIP3     H1       HT       0.417000       1.00800           0
     20158 TIP3     3946     TIP3     H2       HT       0.417000       1.00800           0
     20159 TIP3     3947     TIP3     OH2      OT      -0.834000       15.9994           0
     20160 TIP3     3947     TIP3     H1       HT       0.417000       1.00800           0
     20161 TIP3     3947     TIP3     H2       HT       0.417000       1.00800           0
     20162 TIP3     3948     TIP3     OH2      OT      -0.834000       15.9994           0
     20163 TIP3     3948     TIP3     H1       HT       0.417000       1.00800           0
     20164 TIP3     3948     TIP3     H2       HT       0.417000       1.00800           0
     20165 TIP3     3949     TIP3     OH2      OT      -0.834000       15.9994           0
     20166 TIP3     3949     TIP3     H1       HT       0.417000       1.00800           0
     20167 TIP3     3949     TIP3     H2       HT       0.417000       1.00800           0
     20168 TIP3     3950     TIP3     OH2      OT      -0.834000       15.9994           0
     20169 TIP3     3950     TIP3     H1       HT       0.417000       1.00800           0
     20170 TIP3     3950     TIP3     H2       HT       0.417000       1.00800           0
     20171 TIP3     3951     TIP3     OH2      OT      -0.834000       15.9994           0
     20172 TIP3     3951     TIP3     H1       HT       0.417000       1.00800           0
     20173 TIP3     3951     TIP3     H2       HT       0.417000       1.00800           0
     20174 TIP3     3952     TIP3     OH2      OT      -0.834000       15.9994           0
     20175 TIP3     3952     TIP3     H1       HT       0.417000       1.00800           0
     20176 TIP3     3952     TIP3     H2       HT       0.417000       1.00800           0
     20177 TIP3     3953     TIP3     OH2      OT      -0.834000       15.9994           0
     20178 TIP3     3953     TIP3     H1       HT       0.417000       1.00800           0
     20179 TIP3     3953     TIP3     H2       HT       0.417000       1.00800           0
     20180 TIP3     3954     TIP3     OH2      OT      -0.834000       15.9994           0
     20181 TIP3     3954     TIP3     H1       HT       0.417000       1.00800           0
     20182 TIP3     3954     TIP3     H2       HT       0.417000       1.00800           0
     20183 TIP3     3955     TIP3     OH2      OT      -0.834000       15.9994           0
     20184 TIP3     3955     TIP3     H1       HT       0.417000       1.00800           0
     20185 TIP3     3955     TIP3     H2       HT       0.417000       1.00800           0
     20186 TIP3     3956     TIP3     OH2      OT      -0.834000       15.9994           0
     20187 TIP3     3956     TIP3     H1       HT       0.417000       1.00800           0
     20188 TIP3     3956     TIP3     H2       HT       0.417000       1.00800           0
     20189 TIP3     3957     TIP3     OH2      OT      -0.834000       15.9994           0
     20190 TIP3     3957     TIP3     H1       HT       0.417000       1.00800           0
     20191 TIP3     3957     TIP3     H2       HT       0.417000       1.00800           0
     20192 TIP3     3958     TIP3     OH2      OT      -0.834000       15.9994           0
     20193 TIP3     3958     TIP3     H1       HT       0.417000       1.00800           0
     20194 TIP3     3958     TIP3     H2       HT       0.417000       1.00800           0
     20195 TIP3     3959     TIP3     OH2      OT      -0.834000       15.9994           0
     20196 TIP3     3959     TIP3     H1       HT       0.417000       1.00800           0
     20197 TIP3     3959     TIP3     H2       HT       0.417000       1.00800           0
     20198 TIP3     3960     TIP3     OH2      OT      -0.834000       15.9994           0
     20199 TIP3     3960     TIP3     H1       HT       0.417000       1.00800           0
     20200 TIP3     3960     TIP3     H2       HT       0.417000       1.00800           0
     20201 TIP3     3961     TIP3     OH2      OT      -0.834000       15.9994           0
     20202 TIP3     3961     TIP3     H1       HT       0.417000       1.00800           0
     20203 TIP3     3961     TIP3     H2       HT       0.417000       1.00800           0
     20204 TIP3     3962     TIP3     OH2      OT      -0.834000       15.9994           0
     20205 TIP3     3962     TIP3     H1       HT       0.417000       1.00800           0
     20206 TIP3     3962     TIP3     H2       HT       0.417000       1.00800           0
     20207 TIP3     3963     TIP3     OH2      OT      -0.834000       15.9994           0
     20208 TIP3     3963     TIP3     H1       HT       0.417000       1.00800           0
     20209 TIP3     3963     TIP3     H2       HT       0.417000       1.00800           0
     20210 TIP3     3964     TIP3     OH2      OT      -0.834000       15.9994           0
     20211 TIP3     3964     TIP3     H1       HT       0.417000       1.00800           0
     20212 TIP3     3964     TIP3     H2       HT       0.417000       1.00800           0
     20213 TIP3     3965     TIP3     OH2      OT      -0.834000       15.9994           0
     20214 TIP3     3965     TIP3     H1       HT       0.417000       1.00800           0
     20215 TIP3     3965     TIP3     H2       HT       0.417000       1.00800           0
     20216 TIP3     3966     TIP3     OH2      OT      -0.834000       15.9994           0
     20217 TIP3     3966     TIP3     H1       HT       0.417000       1.00800           0
     20218 TIP3     3966     TIP3     H2       HT       0.417000       1.00800           0
     20219 TIP3     3967     TIP3     OH2      OT      -0.834000       15.9994           0
     20220 TIP3     3967     TIP3     H1       HT       0.417000       1.00800           0
     20221 TIP3     3967     TIP3     H2       HT       0.417000       1.00800           0
     20222 TIP3     3968     TIP3     OH2      OT      -0.834000       15.9994           0
     20223 TIP3     3968     TIP3     H1       HT       0.417000       1.00800           0
     20224 TIP3     3968     TIP3     H2       HT       0.417000       1.00800           0
     20225 TIP3     3969     TIP3     OH2      OT      -0.834000       15.9994           0
     20226 TIP3     3969     TIP3     H1       HT       0.417000       1.00800           0
     20227 TIP3     3969     TIP3     H2       HT       0.417000       1.00800           0
     20228 TIP3     3970     TIP3     OH2      OT      -0.834000       15.9994           0
     20229 TIP3     3970     TIP3     H1       HT       0.417000       1.00800           0
     20230 TIP3     3970     TIP3     H2       HT       0.417000       1.00800           0
     20231 TIP3     3971     TIP3     OH2      OT      -0.834000       15.9994           0
     20232 TIP3     3971     TIP3     H1       HT       0.417000       1.00800           0
     20233 TIP3     3971     TIP3     H2       HT       0.417000       1.00800           0
     20234 TIP3     3972     TIP3     OH2      OT      -0.834000       15.9994           0
     20235 TIP3     3972     TIP3     H1       HT       0.417000       1.00800           0
     20236 TIP3     3972     TIP3     H2       HT       0.417000       1.00800           0
     20237 TIP3     3973     TIP3     OH2      OT      -0.834000       15.9994           0
     20238 TIP3     3973     TIP3     H1       HT       0.417000       1.00800           0
     20239 TIP3     3973     TIP3     H2       HT       0.417000       1.00800           0
     20240 TIP3     3974     TIP3     OH2      OT      -0.834000       15.9994           0
     20241 TIP3     3974     TIP3     H1       HT       0.417000       1.00800           0
     20242 TIP3     3974     TIP3     H2       HT       0.417000       1.00800           0
     20243 TIP3     3975     TIP3     OH2      OT      -0.834000       15.9994           0
     20244 TIP3     3975     TIP3     H1       HT       0.417000       1.00800           0
     20245 TIP3     3975     TIP3     H2       HT       0.417000       1.00800           0
     20246 TIP3     3976     TIP3     OH2      OT      -0.834000       15.9994           0
     20247 TIP3     3976     TIP3     H1       HT       0.417000       1.00800           0
     20248 TIP3     3976     TIP3     H2       HT       0.417000       1.00800           0
     20249 TIP3     3977     TIP3     OH2      OT      -0.834000       15.9994           0
     20250 TIP3     3977     TIP3     H1       HT       0.417000       1.00800           0
     20251 TIP3     3977     TIP3     H2       HT       0.417000       1.00800           0
     20252 TIP3     3978     TIP3     OH2      OT      -0.834000       15.9994           0
     20253 TIP3     3978     TIP3     H1       HT       0.417000       1.00800           0
     20254 TIP3     3978     TIP3     H2       HT       0.417000       1.00800           0
     20255 TIP3     3979     TIP3     OH2      OT      -0.834000       15.9994           0
     20256 TIP3     3979     TIP3     H1       HT       0.417000       1.00800           0
     20257 TIP3     3979     TIP3     H2       HT       0.417000       1.00800           0
     20258 TIP3     3980     TIP3     OH2      OT      -0.834000       15.9994           0
     20259 TIP3     3980     TIP3     H1       HT       0.417000       1.00800           0
     20260 TIP3     3980     TIP3     H2       HT       0.417000       1.00800           0
     20261 TIP3     3981     TIP3     OH2      OT      -0.834000       15.9994           0
     20262 TIP3     3981     TIP3     H1       HT       0.417000       1.00800           0
     20263 TIP3     3981     TIP3     H2       HT       0.417000       1.00800           0
     20264 TIP3     3982     TIP3     OH2      OT      -0.834000       15.9994           0
     20265 TIP3     3982     TIP3     H1       HT       0.417000       1.00800           0
     20266 TIP3     3982     TIP3     H2       HT       0.417000       1.00800           0
     20267 TIP3     3983     TIP3     OH2      OT      -0.834000       15.9994           0
     20268 TIP3     3983     TIP3     H1       HT       0.417000       1.00800           0
     20269 TIP3     3983     TIP3     H2       HT       0.417000       1.00800           0
     20270 TIP3     3984     TIP3     OH2      OT      -0.834000       15.9994           0
     20271 TIP3     3984     TIP3     H1       HT       0.417000       1.00800           0
     20272 TIP3     3984     TIP3     H2       HT       0.417000       1.00800           0
     20273 TIP3     3985     TIP3     OH2      OT      -0.834000       15.9994           0
     20274 TIP3     3985     TIP3     H1       HT       0.417000       1.00800           0
     20275 TIP3     3985     TIP3     H2       HT       0.417000       1.00800           0
     20276 TIP3     3986     TIP3     OH2      OT      -0.834000       15.9994           0
     20277 TIP3     3986     TIP3     H1       HT       0.417000       1.00800           0
     20278 TIP3     3986     TIP3     H2       HT       0.417000       1.00800           0
     20279 TIP3     3987     TIP3     OH2      OT      -0.834000       15.9994           0
     20280 TIP3     3987     TIP3     H1       HT       0.417000       1.00800           0
     20281 TIP3     3987     TIP3     H2       HT       0.417000       1.00800           0
     20282 TIP3     3988     TIP3     OH2      OT      -0.834000       15.9994           0
     20283 TIP3     3988     TIP3     H1       HT       0.417000       1.00800           0
     20284 TIP3     3988     TIP3     H2       HT       0.417000       1.00800           0
     20285 TIP3     3989     TIP3     OH2      OT      -0.834000       15.9994           0
     20286 TIP3     3989     TIP3     H1       HT       0.417000       1.00800           0
     20287 TIP3     3989     TIP3     H2       HT       0.417000       1.00800           0
     20288 TIP3     3990     TIP3     OH2      OT      -0.834000       15.9994           0
     20289 TIP3     3990     TIP3     H1       HT       0.417000       1.00800           0
     20290 TIP3     3990     TIP3     H2       HT       0.417000       1.00800           0
     20291 TIP3     3991     TIP3     OH2      OT      -0.834000       15.9994           0
     20292 TIP3     3991     TIP3     H1       HT       0.417000       1.00800           0
     20293 TIP3     3991     TIP3     H2       HT       0.417000       1.00800           0
     20294 TIP3     3992     TIP3     OH2      OT      -0.834000       15.9994           0
     20295 TIP3     3992     TIP3     H1       HT       0.417000       1.00800           0
     20296 TIP3     3992     TIP3     H2       HT       0.417000       1.00800           0
     20297 TIP3     3993     TIP3     OH2      OT      -0.834000       15.9994           0
     20298 TIP3     3993     TIP3     H1       HT       0.417000       1.00800           0
     20299 TIP3     3993     TIP3     H2       HT       0.417000       1.00800           0
     20300 TIP3     3994     TIP3     OH2      OT      -0.834000       15.9994           0
     20301 TIP3     3994     TIP3     H1       HT       0.417000       1.00800           0
     20302 TIP3     3994     TIP3     H2       HT       0.417000       1.00800           0
     20303 TIP3     3995     TIP3     OH2      OT      -0.834000       15.9994           0
     20304 TIP3     3995     TIP3     H1       HT       0.417000       1.00800           0
     20305 TIP3     3995     TIP3     H2       HT       0.417000       1.00800           0
     20306 TIP3     3996     TIP3     OH2      OT      -0.834000       15.9994           0
     20307 TIP3     3996     TIP3     H1       HT       0.417000       1.00800           0
     20308 TIP3     3996     TIP3     H2       HT       0.417000       1.00800           0
     20309 TIP3     3997     TIP3     OH2      OT      -0.834000       15.9994           0
     20310 TIP3     3997     TIP3     H1       HT       0.417000       1.00800           0
     20311 TIP3     3997     TIP3     H2       HT       0.417000       1.00800           0
     20312 TIP3     3998     TIP3     OH2      OT      -0.834000       15.9994           0
     20313 TIP3     3998     TIP3     H1       HT       0.417000       1.00800           0
     20314 TIP3     3998     TIP3     H2       HT       0.417000       1.00800           0
     20315 TIP3     3999     TIP3     OH2      OT      -0.834000       15.9994           0
     20316 TIP3     3999     TIP3     H1       HT       0.417000       1.00800           0
     20317 TIP3     3999     TIP3     H2       HT       0.417000       1.00800           0
     20318 TIP3     4000     TIP3     OH2      OT      -0.834000       15.9994           0
     20319 TIP3     4000     TIP3     H1       HT       0.417000       1.00800           0
     20320 TIP3     4000     TIP3     H2       HT       0.417000       1.00800           0
     20321 TIP3     4001     TIP3     OH2      OT      -0.834000       15.9994           0
     20322 TIP3     4001     TIP3     H1       HT       0.417000       1.00800           0
     20323 TIP3     4001     TIP3     H2       HT       0.417000       1.00800           0
     20324 TIP3     4002     TIP3     OH2      OT      -0.834000       15.9994           0
     20325 TIP3     4002     TIP3     H1       HT       0.417000       1.00800           0
     20326 TIP3     4002     TIP3     H2       HT       0.417000       1.00800           0
     20327 TIP3     4003     TIP3     OH2      OT      -0.834000       15.9994           0
     20328 TIP3     4003     TIP3     H1       HT       0.417000       1.00800           0
     20329 TIP3     4003     TIP3     H2       HT       0.417000       1.00800           0
     20330 TIP3     4004     TIP3     OH2      OT      -0.834000       15.9994           0
     20331 TIP3     4004     TIP3     H1       HT       0.417000       1.00800           0
     20332 TIP3     4004     TIP3     H2       HT       0.417000       1.00800           0
     20333 TIP3     4005     TIP3     OH2      OT      -0.834000       15.9994           0
     20334 TIP3     4005     TIP3     H1       HT       0.417000       1.00800           0
     20335 TIP3     4005     TIP3     H2       HT       0.417000       1.00800           0
     20336 TIP3     4006     TIP3     OH2      OT      -0.834000       15.9994           0
     20337 TIP3     4006     TIP3     H1       HT       0.417000       1.00800           0
     20338 TIP3     4006     TIP3     H2       HT       0.417000       1.00800           0
     20339 TIP3     4007     TIP3     OH2      OT      -0.834000       15.9994           0
     20340 TIP3     4007     TIP3     H1       HT       0.417000       1.00800           0
     20341 TIP3     4007     TIP3     H2       HT       0.417000       1.00800           0
     20342 TIP3     4008     TIP3     OH2      OT      -0.834000       15.9994           0
     20343 TIP3     4008     TIP3     H1       HT       0.417000       1.00800           0
     20344 TIP3     4008     TIP3     H2       HT       0.417000       1.00800           0
     20345 TIP3     4009     TIP3     OH2      OT      -0.834000       15.9994           0
     20346 TIP3     4009     TIP3     H1       HT       0.417000       1.00800           0
     20347 TIP3     4009     TIP3     H2       HT       0.417000       1.00800           0
     20348 TIP3     4010     TIP3     OH2      OT      -0.834000       15.9994           0
     20349 TIP3     4010     TIP3     H1       HT       0.417000       1.00800           0
     20350 TIP3     4010     TIP3     H2       HT       0.417000       1.00800           0
     20351 TIP3     4011     TIP3     OH2      OT      -0.834000       15.9994           0
     20352 TIP3     4011     TIP3     H1       HT       0.417000       1.00800           0
     20353 TIP3     4011     TIP3     H2       HT       0.417000       1.00800           0
     20354 TIP3     4012     TIP3     OH2      OT      -0.834000       15.9994           0
     20355 TIP3     4012     TIP3     H1       HT       0.417000       1.00800           0
     20356 TIP3     4012     TIP3     H2       HT       0.417000       1.00800           0
     20357 TIP3     4013     TIP3     OH2      OT      -0.834000       15.9994           0
     20358 TIP3     4013     TIP3     H1       HT       0.417000       1.00800           0
     20359 TIP3     4013     TIP3     H2       HT       0.417000       1.00800           0
     20360 TIP3     4014     TIP3     OH2      OT      -0.834000       15.9994           0
     20361 TIP3     4014     TIP3     H1       HT       0.417000       1.00800           0
     20362 TIP3     4014     TIP3     H2       HT       0.417000       1.00800           0
     20363 TIP3     4015     TIP3     OH2      OT      -0.834000       15.9994           0
     20364 TIP3     4015     TIP3     H1       HT       0.417000       1.00800           0
     20365 TIP3     4015     TIP3     H2       HT       0.417000       1.00800           0
     20366 TIP3     4016     TIP3     OH2      OT      -0.834000       15.9994           0
     20367 TIP3     4016     TIP3     H1       HT       0.417000       1.00800           0
     20368 TIP3     4016     TIP3     H2       HT       0.417000       1.00800           0
     20369 TIP3     4017     TIP3     OH2      OT      -0.834000       15.9994           0
     20370 TIP3     4017     TIP3     H1       HT       0.417000       1.00800           0
     20371 TIP3     4017     TIP3     H2       HT       0.417000       1.00800           0
     20372 TIP3     4018     TIP3     OH2      OT      -0.834000       15.9994           0
     20373 TIP3     4018     TIP3     H1       HT       0.417000       1.00800           0
     20374 TIP3     4018     TIP3     H2       HT       0.417000       1.00800           0
     20375 TIP3     4019     TIP3     OH2      OT      -0.834000       15.9994           0
     20376 TIP3     4019     TIP3     H1       HT       0.417000       1.00800           0
     20377 TIP3     4019     TIP3     H2       HT       0.417000       1.00800           0
     20378 TIP3     4020     TIP3     OH2      OT      -0.834000       15.9994           0
     20379 TIP3     4020     TIP3     H1       HT       0.417000       1.00800           0
     20380 TIP3     4020     TIP3     H2       HT       0.417000       1.00800           0
     20381 TIP3     4021     TIP3     OH2      OT      -0.834000       15.9994           0
     20382 TIP3     4021     TIP3     H1       HT       0.417000       1.00800           0
     20383 TIP3     4021     TIP3     H2       HT       0.417000       1.00800           0
     20384 TIP3     4022     TIP3     OH2      OT      -0.834000       15.9994           0
     20385 TIP3     4022     TIP3     H1       HT       0.417000       1.00800           0
     20386 TIP3     4022     TIP3     H2       HT       0.417000       1.00800           0
     20387 TIP3     4023     TIP3     OH2      OT      -0.834000       15.9994           0
     20388 TIP3     4023     TIP3     H1       HT       0.417000       1.00800           0
     20389 TIP3     4023     TIP3     H2       HT       0.417000       1.00800           0
     20390 TIP3     4024     TIP3     OH2      OT      -0.834000       15.9994           0
     20391 TIP3     4024     TIP3     H1       HT       0.417000       1.00800           0
     20392 TIP3     4024     TIP3     H2       HT       0.417000       1.00800           0
     20393 TIP3     4025     TIP3     OH2      OT      -0.834000       15.9994           0
     20394 TIP3     4025     TIP3     H1       HT       0.417000       1.00800           0
     20395 TIP3     4025     TIP3     H2       HT       0.417000       1.00800           0
     20396 TIP3     4026     TIP3     OH2      OT      -0.834000       15.9994           0
     20397 TIP3     4026     TIP3     H1       HT       0.417000       1.00800           0
     20398 TIP3     4026     TIP3     H2       HT       0.417000       1.00800           0
     20399 TIP3     4027     TIP3     OH2      OT      -0.834000       15.9994           0
     20400 TIP3     4027     TIP3     H1       HT       0.417000       1.00800           0
     20401 TIP3     4027     TIP3     H2       HT       0.417000       1.00800           0
     20402 TIP3     4028     TIP3     OH2      OT      -0.834000       15.9994           0
     20403 TIP3     4028     TIP3     H1       HT       0.417000       1.00800           0
     20404 TIP3     4028     TIP3     H2       HT       0.417000       1.00800           0
     20405 TIP3     4029     TIP3     OH2      OT      -0.834000       15.9994           0
     20406 TIP3     4029     TIP3     H1       HT       0.417000       1.00800           0
     20407 TIP3     4029     TIP3     H2       HT       0.417000       1.00800           0
     20408 TIP3     4030     TIP3     OH2      OT      -0.834000       15.9994           0
     20409 TIP3     4030     TIP3     H1       HT       0.417000       1.00800           0
     20410 TIP3     4030     TIP3     H2       HT       0.417000       1.00800           0
     20411 TIP3     4031     TIP3     OH2      OT      -0.834000       15.9994           0
     20412 TIP3     4031     TIP3     H1       HT       0.417000       1.00800           0
     20413 TIP3     4031     TIP3     H2       HT       0.417000       1.00800           0
     20414 TIP3     4032     TIP3     OH2      OT      -0.834000       15.9994           0
     20415 TIP3     4032     TIP3     H1       HT       0.417000       1.00800           0
     20416 TIP3     4032     TIP3     H2       HT       0.417000       1.00800           0
     20417 TIP3     4033     TIP3     OH2      OT      -0.834000       15.9994           0
     20418 TIP3     4033     TIP3     H1       HT       0.417000       1.00800           0
     20419 TIP3     4033     TIP3     H2       HT       0.417000       1.00800           0
     20420 TIP3     4034     TIP3     OH2      OT      -0.834000       15.9994           0
     20421 TIP3     4034     TIP3     H1       HT       0.417000       1.00800           0
     20422 TIP3     4034     TIP3     H2       HT       0.417000       1.00800           0
     20423 TIP3     4035     TIP3     OH2      OT      -0.834000       15.9994           0
     20424 TIP3     4035     TIP3     H1       HT       0.417000       1.00800           0
     20425 TIP3     4035     TIP3     H2       HT       0.417000       1.00800           0
     20426 TIP3     4036     TIP3     OH2      OT      -0.834000       15.9994           0
     20427 TIP3     4036     TIP3     H1       HT       0.417000       1.00800           0
     20428 TIP3     4036     TIP3     H2       HT       0.417000       1.00800           0
     20429 TIP3     4037     TIP3     OH2      OT      -0.834000       15.9994           0
     20430 TIP3     4037     TIP3     H1       HT       0.417000       1.00800           0
     20431 TIP3     4037     TIP3     H2       HT       0.417000       1.00800           0
     20432 TIP3     4038     TIP3     OH2      OT      -0.834000       15.9994           0
     20433 TIP3     4038     TIP3     H1       HT       0.417000       1.00800           0
     20434 TIP3     4038     TIP3     H2       HT       0.417000       1.00800           0
     20435 TIP3     4039     TIP3     OH2      OT      -0.834000       15.9994           0
     20436 TIP3     4039     TIP3     H1       HT       0.417000       1.00800           0
     20437 TIP3     4039     TIP3     H2       HT       0.417000       1.00800           0
     20438 TIP3     4040     TIP3     OH2      OT      -0.834000       15.9994           0
     20439 TIP3     4040     TIP3     H1       HT       0.417000       1.00800           0
     20440 TIP3     4040     TIP3     H2       HT       0.417000       1.00800           0
     20441 TIP3     4041     TIP3     OH2      OT      -0.834000       15.9994           0
     20442 TIP3     4041     TIP3     H1       HT       0.417000       1.00800           0
     20443 TIP3     4041     TIP3     H2       HT       0.417000       1.00800           0
     20444 TIP3     4042     TIP3     OH2      OT      -0.834000       15.9994           0
     20445 TIP3     4042     TIP3     H1       HT       0.417000       1.00800           0
     20446 TIP3     4042     TIP3     H2       HT       0.417000       1.00800           0
     20447 TIP3     4043     TIP3     OH2      OT      -0.834000       15.9994           0
     20448 TIP3     4043     TIP3     H1       HT       0.417000       1.00800           0
     20449 TIP3     4043     TIP3     H2       HT       0.417000       1.00800           0
     20450 TIP3     4044     TIP3     OH2      OT      -0.834000       15.9994           0
     20451 TIP3     4044     TIP3     H1       HT       0.417000       1.00800           0
     20452 TIP3     4044     TIP3     H2       HT       0.417000       1.00800           0
     20453 TIP3     4045     TIP3     OH2      OT      -0.834000       15.9994           0
     20454 TIP3     4045     TIP3     H1       HT       0.417000       1.00800           0
     20455 TIP3     4045     TIP3     H2       HT       0.417000       1.00800           0
     20456 TIP3     4046     TIP3     OH2      OT      -0.834000       15.9994           0
     20457 TIP3     4046     TIP3     H1       HT       0.417000       1.00800           0
     20458 TIP3     4046     TIP3     H2       HT       0.417000       1.00800           0
     20459 TIP3     4047     TIP3     OH2      OT      -0.834000       15.9994           0
     20460 TIP3     4047     TIP3     H1       HT       0.417000       1.00800           0
     20461 TIP3     4047     TIP3     H2       HT       0.417000       1.00800           0
     20462 TIP3     4048     TIP3     OH2      OT      -0.834000       15.9994           0
     20463 TIP3     4048     TIP3     H1       HT       0.417000       1.00800           0
     20464 TIP3     4048     TIP3     H2       HT       0.417000       1.00800           0
     20465 TIP3     4049     TIP3     OH2      OT      -0.834000       15.9994           0
     20466 TIP3     4049     TIP3     H1       HT       0.417000       1.00800           0
     20467 TIP3     4049     TIP3     H2       HT       0.417000       1.00800           0
     20468 TIP3     4050     TIP3     OH2      OT      -0.834000       15.9994           0
     20469 TIP3     4050     TIP3     H1       HT       0.417000       1.00800           0
     20470 TIP3     4050     TIP3     H2       HT       0.417000       1.00800           0
     20471 TIP3     4051     TIP3     OH2      OT      -0.834000       15.9994           0
     20472 TIP3     4051     TIP3     H1       HT       0.417000       1.00800           0
     20473 TIP3     4051     TIP3     H2       HT       0.417000       1.00800           0
     20474 TIP3     4052     TIP3     OH2      OT      -0.834000       15.9994           0
     20475 TIP3     4052     TIP3     H1       HT       0.417000       1.00800           0
     20476 TIP3     4052     TIP3     H2       HT       0.417000       1.00800           0
     20477 TIP3     4053     TIP3     OH2      OT      -0.834000       15.9994           0
     20478 TIP3     4053     TIP3     H1       HT       0.417000       1.00800           0
     20479 TIP3     4053     TIP3     H2       HT       0.417000       1.00800           0
     20480 TIP3     4054     TIP3     OH2      OT      -0.834000       15.9994           0
     20481 TIP3     4054     TIP3     H1       HT       0.417000       1.00800           0
     20482 TIP3     4054     TIP3     H2       HT       0.417000       1.00800           0
     20483 TIP3     4055     TIP3     OH2      OT      -0.834000       15.9994           0
     20484 TIP3     4055     TIP3     H1       HT       0.417000       1.00800           0
     20485 TIP3     4055     TIP3     H2       HT       0.417000       1.00800           0
     20486 TIP3     4056     TIP3     OH2      OT      -0.834000       15.9994           0
     20487 TIP3     4056     TIP3     H1       HT       0.417000       1.00800           0
     20488 TIP3     4056     TIP3     H2       HT       0.417000       1.00800           0
     20489 TIP3     4057     TIP3     OH2      OT      -0.834000       15.9994           0
     20490 TIP3     4057     TIP3     H1       HT       0.417000       1.00800           0
     20491 TIP3     4057     TIP3     H2       HT       0.417000       1.00800           0
     20492 TIP3     4058     TIP3     OH2      OT      -0.834000       15.9994           0
     20493 TIP3     4058     TIP3     H1       HT       0.417000       1.00800           0
     20494 TIP3     4058     TIP3     H2       HT       0.417000       1.00800           0
     20495 TIP3     4059     TIP3     OH2      OT      -0.834000       15.9994           0
     20496 TIP3     4059     TIP3     H1       HT       0.417000       1.00800           0
     20497 TIP3     4059     TIP3     H2       HT       0.417000       1.00800           0
     20498 TIP3     4060     TIP3     OH2      OT      -0.834000       15.9994           0
     20499 TIP3     4060     TIP3     H1       HT       0.417000       1.00800           0
     20500 TIP3     4060     TIP3     H2       HT       0.417000       1.00800           0
     20501 TIP3     4061     TIP3     OH2      OT      -0.834000       15.9994           0
     20502 TIP3     4061     TIP3     H1       HT       0.417000       1.00800           0
     20503 TIP3     4061     TIP3     H2       HT       0.417000       1.00800           0
     20504 TIP3     4062     TIP3     OH2      OT      -0.834000       15.9994           0
     20505 TIP3     4062     TIP3     H1       HT       0.417000       1.00800           0
     20506 TIP3     4062     TIP3     H2       HT       0.417000       1.00800           0
     20507 TIP3     4063     TIP3     OH2      OT      -0.834000       15.9994           0
     20508 TIP3     4063     TIP3     H1       HT       0.417000       1.00800           0
     20509 TIP3     4063     TIP3     H2       HT       0.417000       1.00800           0
     20510 TIP3     4064     TIP3     OH2      OT      -0.834000       15.9994           0
     20511 TIP3     4064     TIP3     H1       HT       0.417000       1.00800           0
     20512 TIP3     4064     TIP3     H2       HT       0.417000       1.00800           0
     20513 TIP3     4065     TIP3     OH2      OT      -0.834000       15.9994           0
     20514 TIP3     4065     TIP3     H1       HT       0.417000       1.00800           0
     20515 TIP3     4065     TIP3     H2       HT       0.417000       1.00800           0
     20516 TIP3     4066     TIP3     OH2      OT      -0.834000       15.9994           0
     20517 TIP3     4066     TIP3     H1       HT       0.417000       1.00800           0
     20518 TIP3     4066     TIP3     H2       HT       0.417000       1.00800           0
     20519 TIP3     4067     TIP3     OH2      OT      -0.834000       15.9994           0
     20520 TIP3     4067     TIP3     H1       HT       0.417000       1.00800           0
     20521 TIP3     4067     TIP3     H2       HT       0.417000       1.00800           0
     20522 TIP3     4068     TIP3     OH2      OT      -0.834000       15.9994           0
     20523 TIP3     4068     TIP3     H1       HT       0.417000       1.00800           0
     20524 TIP3     4068     TIP3     H2       HT       0.417000       1.00800           0
     20525 TIP3     4069     TIP3     OH2      OT      -0.834000       15.9994           0
     20526 TIP3     4069     TIP3     H1       HT       0.417000       1.00800           0
     20527 TIP3     4069     TIP3     H2       HT       0.417000       1.00800           0
     20528 TIP3     4070     TIP3     OH2      OT      -0.834000       15.9994           0
     20529 TIP3     4070     TIP3     H1       HT       0.417000       1.00800           0
     20530 TIP3     4070     TIP3     H2       HT       0.417000       1.00800           0
     20531 TIP3     4071     TIP3     OH2      OT      -0.834000       15.9994           0
     20532 TIP3     4071     TIP3     H1       HT       0.417000       1.00800           0
     20533 TIP3     4071     TIP3     H2       HT       0.417000       1.00800           0
     20534 TIP3     4072     TIP3     OH2      OT      -0.834000       15.9994           0
     20535 TIP3     4072     TIP3     H1       HT       0.417000       1.00800           0
     20536 TIP3     4072     TIP3     H2       HT       0.417000       1.00800           0
     20537 TIP3     4073     TIP3     OH2      OT      -0.834000       15.9994           0
     20538 TIP3     4073     TIP3     H1       HT       0.417000       1.00800           0
     20539 TIP3     4073     TIP3     H2       HT       0.417000       1.00800           0
     20540 TIP3     4074     TIP3     OH2      OT      -0.834000       15.9994           0
     20541 TIP3     4074     TIP3     H1       HT       0.417000       1.00800           0
     20542 TIP3     4074     TIP3     H2       HT       0.417000       1.00800           0
     20543 TIP3     4075     TIP3     OH2      OT      -0.834000       15.9994           0
     20544 TIP3     4075     TIP3     H1       HT       0.417000       1.00800           0
     20545 TIP3     4075     TIP3     H2       HT       0.417000       1.00800           0
     20546 TIP3     4076     TIP3     OH2      OT      -0.834000       15.9994           0
     20547 TIP3     4076     TIP3     H1       HT       0.417000       1.00800           0
     20548 TIP3     4076     TIP3     H2       HT       0.417000       1.00800           0
     20549 TIP3     4077     TIP3     OH2      OT      -0.834000       15.9994           0
     20550 TIP3     4077     TIP3     H1       HT       0.417000       1.00800           0
     20551 TIP3     4077     TIP3     H2       HT       0.417000       1.00800           0
     20552 TIP3     4078     TIP3     OH2      OT      -0.834000       15.9994           0
     20553 TIP3     4078     TIP3     H1       HT       0.417000       1.00800           0
     20554 TIP3     4078     TIP3     H2       HT       0.417000       1.00800           0
     20555 TIP3     4079     TIP3     OH2      OT      -0.834000       15.9994           0
     20556 TIP3     4079     TIP3     H1       HT       0.417000       1.00800           0
     20557 TIP3     4079     TIP3     H2       HT       0.417000       1.00800           0
     20558 TIP3     4080     TIP3     OH2      OT      -0.834000       15.9994           0
     20559 TIP3     4080     TIP3     H1       HT       0.417000       1.00800           0
     20560 TIP3     4080     TIP3     H2       HT       0.417000       1.00800           0
     20561 TIP3     4081     TIP3     OH2      OT      -0.834000       15.9994           0
     20562 TIP3     4081     TIP3     H1       HT       0.417000       1.00800           0
     20563 TIP3     4081     TIP3     H2       HT       0.417000       1.00800           0
     20564 TIP3     4082     TIP3     OH2      OT      -0.834000       15.9994           0
     20565 TIP3     4082     TIP3     H1       HT       0.417000       1.00800           0
     20566 TIP3     4082     TIP3     H2       HT       0.417000       1.00800           0
     20567 TIP3     4083     TIP3     OH2      OT      -0.834000       15.9994           0
     20568 TIP3     4083     TIP3     H1       HT       0.417000       1.00800           0
     20569 TIP3     4083     TIP3     H2       HT       0.417000       1.00800           0
     20570 TIP3     4084     TIP3     OH2      OT      -0.834000       15.9994           0
     20571 TIP3     4084     TIP3     H1       HT       0.417000       1.00800           0
     20572 TIP3     4084     TIP3     H2       HT       0.417000       1.00800           0
     20573 TIP3     4085     TIP3     OH2      OT      -0.834000       15.9994           0
     20574 TIP3     4085     TIP3     H1       HT       0.417000       1.00800           0
     20575 TIP3     4085     TIP3     H2       HT       0.417000       1.00800           0
     20576 TIP3     4086     TIP3     OH2      OT      -0.834000       15.9994           0
     20577 TIP3     4086     TIP3     H1       HT       0.417000       1.00800           0
     20578 TIP3     4086     TIP3     H2       HT       0.417000       1.00800           0
     20579 TIP3     4087     TIP3     OH2      OT      -0.834000       15.9994           0
     20580 TIP3     4087     TIP3     H1       HT       0.417000       1.00800           0
     20581 TIP3     4087     TIP3     H2       HT       0.417000       1.00800           0
     20582 TIP3     4088     TIP3     OH2      OT      -0.834000       15.9994           0
     20583 TIP3     4088     TIP3     H1       HT       0.417000       1.00800           0
     20584 TIP3     4088     TIP3     H2       HT       0.417000       1.00800           0
     20585 TIP3     4089     TIP3     OH2      OT      -0.834000       15.9994           0
     20586 TIP3     4089     TIP3     H1       HT       0.417000       1.00800           0
     20587 TIP3     4089     TIP3     H2       HT       0.417000       1.00800           0
     20588 TIP3     4090     TIP3     OH2      OT      -0.834000       15.9994           0
     20589 TIP3     4090     TIP3     H1       HT       0.417000       1.00800           0
     20590 TIP3     4090     TIP3     H2       HT       0.417000       1.00800           0
     20591 TIP3     4091     TIP3     OH2      OT      -0.834000       15.9994           0
     20592 TIP3     4091     TIP3     H1       HT       0.417000       1.00800           0
     20593 TIP3     4091     TIP3     H2       HT       0.417000       1.00800           0
     20594 TIP3     4092     TIP3     OH2      OT      -0.834000       15.9994           0
     20595 TIP3     4092     TIP3     H1       HT       0.417000       1.00800           0
     20596 TIP3     4092     TIP3     H2       HT       0.417000       1.00800           0
     20597 TIP3     4093     TIP3     OH2      OT      -0.834000       15.9994           0
     20598 TIP3     4093     TIP3     H1       HT       0.417000       1.00800           0
     20599 TIP3     4093     TIP3     H2       HT       0.417000       1.00800           0
     20600 TIP3     4094     TIP3     OH2      OT      -0.834000       15.9994           0
     20601 TIP3     4094     TIP3     H1       HT       0.417000       1.00800           0
     20602 TIP3     4094     TIP3     H2       HT       0.417000       1.00800           0
     20603 TIP3     4095     TIP3     OH2      OT      -0.834000       15.9994           0
     20604 TIP3     4095     TIP3     H1       HT       0.417000       1.00800           0
     20605 TIP3     4095     TIP3     H2       HT       0.417000       1.00800           0
     20606 TIP3     4096     TIP3     OH2      OT      -0.834000       15.9994           0
     20607 TIP3     4096     TIP3     H1       HT       0.417000       1.00800           0
     20608 TIP3     4096     TIP3     H2       HT       0.417000       1.00800           0
     20609 TIP3     4097     TIP3     OH2      OT      -0.834000       15.9994           0
     20610 TIP3     4097     TIP3     H1       HT       0.417000       1.00800           0
     20611 TIP3     4097     TIP3     H2       HT       0.417000       1.00800           0
     20612 TIP3     4098     TIP3     OH2      OT      -0.834000       15.9994           0
     20613 TIP3     4098     TIP3     H1       HT       0.417000       1.00800           0
     20614 TIP3     4098     TIP3     H2       HT       0.417000       1.00800           0
     20615 TIP3     4099     TIP3     OH2      OT      -0.834000       15.9994           0
     20616 TIP3     4099     TIP3     H1       HT       0.417000       1.00800           0
     20617 TIP3     4099     TIP3     H2       HT       0.417000       1.00800           0
     20618 TIP3     4100     TIP3     OH2      OT      -0.834000       15.9994           0
     20619 TIP3     4100     TIP3     H1       HT       0.417000       1.00800           0
     20620 TIP3     4100     TIP3     H2       HT       0.417000       1.00800           0
     20621 TIP3     4101     TIP3     OH2      OT      -0.834000       15.9994           0
     20622 TIP3     4101     TIP3     H1       HT       0.417000       1.00800           0
     20623 TIP3     4101     TIP3     H2       HT       0.417000       1.00800           0
     20624 TIP3     4102     TIP3     OH2      OT      -0.834000       15.9994           0
     20625 TIP3     4102     TIP3     H1       HT       0.417000       1.00800           0
     20626 TIP3     4102     TIP3     H2       HT       0.417000       1.00800           0
     20627 TIP3     4103     TIP3     OH2      OT      -0.834000       15.9994           0
     20628 TIP3     4103     TIP3     H1       HT       0.417000       1.00800           0
     20629 TIP3     4103     TIP3     H2       HT       0.417000       1.00800           0
     20630 TIP3     4104     TIP3     OH2      OT      -0.834000       15.9994           0
     20631 TIP3     4104     TIP3     H1       HT       0.417000       1.00800           0
     20632 TIP3     4104     TIP3     H2       HT       0.417000       1.00800           0
     20633 TIP3     4105     TIP3     OH2      OT      -0.834000       15.9994           0
     20634 TIP3     4105     TIP3     H1       HT       0.417000       1.00800           0
     20635 TIP3     4105     TIP3     H2       HT       0.417000       1.00800           0
     20636 TIP3     4106     TIP3     OH2      OT      -0.834000       15.9994           0
     20637 TIP3     4106     TIP3     H1       HT       0.417000       1.00800           0
     20638 TIP3     4106     TIP3     H2       HT       0.417000       1.00800           0
     20639 TIP3     4107     TIP3     OH2      OT      -0.834000       15.9994           0
     20640 TIP3     4107     TIP3     H1       HT       0.417000       1.00800           0
     20641 TIP3     4107     TIP3     H2       HT       0.417000       1.00800           0
     20642 TIP3     4108     TIP3     OH2      OT      -0.834000       15.9994           0
     20643 TIP3     4108     TIP3     H1       HT       0.417000       1.00800           0
     20644 TIP3     4108     TIP3     H2       HT       0.417000       1.00800           0
     20645 TIP3     4109     TIP3     OH2      OT      -0.834000       15.9994           0
     20646 TIP3     4109     TIP3     H1       HT       0.417000       1.00800           0
     20647 TIP3     4109     TIP3     H2       HT       0.417000       1.00800           0
     20648 TIP3     4110     TIP3     OH2      OT      -0.834000       15.9994           0
     20649 TIP3     4110     TIP3     H1       HT       0.417000       1.00800           0
     20650 TIP3     4110     TIP3     H2       HT       0.417000       1.00800           0
     20651 TIP3     4111     TIP3     OH2      OT      -0.834000       15.9994           0
     20652 TIP3     4111     TIP3     H1       HT       0.417000       1.00800           0
     20653 TIP3     4111     TIP3     H2       HT       0.417000       1.00800           0
     20654 TIP3     4112     TIP3     OH2      OT      -0.834000       15.9994           0
     20655 TIP3     4112     TIP3     H1       HT       0.417000       1.00800           0
     20656 TIP3     4112     TIP3     H2       HT       0.417000       1.00800           0
     20657 TIP3     4113     TIP3     OH2      OT      -0.834000       15.9994           0
     20658 TIP3     4113     TIP3     H1       HT       0.417000       1.00800           0
     20659 TIP3     4113     TIP3     H2       HT       0.417000       1.00800           0
     20660 TIP3     4114     TIP3     OH2      OT      -0.834000       15.9994           0
     20661 TIP3     4114     TIP3     H1       HT       0.417000       1.00800           0
     20662 TIP3     4114     TIP3     H2       HT       0.417000       1.00800           0
     20663 TIP3     4115     TIP3     OH2      OT      -0.834000       15.9994           0
     20664 TIP3     4115     TIP3     H1       HT       0.417000       1.00800           0
     20665 TIP3     4115     TIP3     H2       HT       0.417000       1.00800           0
     20666 TIP3     4116     TIP3     OH2      OT      -0.834000       15.9994           0
     20667 TIP3     4116     TIP3     H1       HT       0.417000       1.00800           0
     20668 TIP3     4116     TIP3     H2       HT       0.417000       1.00800           0
     20669 TIP3     4117     TIP3     OH2      OT      -0.834000       15.9994           0
     20670 TIP3     4117     TIP3     H1       HT       0.417000       1.00800           0
     20671 TIP3     4117     TIP3     H2       HT       0.417000       1.00800           0
     20672 TIP3     4118     TIP3     OH2      OT      -0.834000       15.9994           0
     20673 TIP3     4118     TIP3     H1       HT       0.417000       1.00800           0
     20674 TIP3     4118     TIP3     H2       HT       0.417000       1.00800           0
     20675 TIP3     4119     TIP3     OH2      OT      -0.834000       15.9994           0
     20676 TIP3     4119     TIP3     H1       HT       0.417000       1.00800           0
     20677 TIP3     4119     TIP3     H2       HT       0.417000       1.00800           0
     20678 TIP3     4120     TIP3     OH2      OT      -0.834000       15.9994           0
     20679 TIP3     4120     TIP3     H1       HT       0.417000       1.00800           0
     20680 TIP3     4120     TIP3     H2       HT       0.417000       1.00800           0
     20681 TIP3     4121     TIP3     OH2      OT      -0.834000       15.9994           0
     20682 TIP3     4121     TIP3     H1       HT       0.417000       1.00800           0
     20683 TIP3     4121     TIP3     H2       HT       0.417000       1.00800           0
     20684 TIP3     4122     TIP3     OH2      OT      -0.834000       15.9994           0
     20685 TIP3     4122     TIP3     H1       HT       0.417000       1.00800           0
     20686 TIP3     4122     TIP3     H2       HT       0.417000       1.00800           0
     20687 TIP3     4123     TIP3     OH2      OT      -0.834000       15.9994           0
     20688 TIP3     4123     TIP3     H1       HT       0.417000       1.00800           0
     20689 TIP3     4123     TIP3     H2       HT       0.417000       1.00800           0
     20690 TIP3     4124     TIP3     OH2      OT      -0.834000       15.9994           0
     20691 TIP3     4124     TIP3     H1       HT       0.417000       1.00800           0
     20692 TIP3     4124     TIP3     H2       HT       0.417000       1.00800           0
     20693 TIP3     4125     TIP3     OH2      OT      -0.834000       15.9994           0
     20694 TIP3     4125     TIP3     H1       HT       0.417000       1.00800           0
     20695 TIP3     4125     TIP3     H2       HT       0.417000       1.00800           0
     20696 TIP3     4126     TIP3     OH2      OT      -0.834000       15.9994           0
     20697 TIP3     4126     TIP3     H1       HT       0.417000       1.00800           0
     20698 TIP3     4126     TIP3     H2       HT       0.417000       1.00800           0
     20699 TIP3     4127     TIP3     OH2      OT      -0.834000       15.9994           0
     20700 TIP3     4127     TIP3     H1       HT       0.417000       1.00800           0
     20701 TIP3     4127     TIP3     H2       HT       0.417000       1.00800           0
     20702 TIP3     4128     TIP3     OH2      OT      -0.834000       15.9994           0
     20703 TIP3     4128     TIP3     H1       HT       0.417000       1.00800           0
     20704 TIP3     4128     TIP3     H2       HT       0.417000       1.00800           0
     20705 TIP3     4129     TIP3     OH2      OT      -0.834000       15.9994           0
     20706 TIP3     4129     TIP3     H1       HT       0.417000       1.00800           0
     20707 TIP3     4129     TIP3     H2       HT       0.417000       1.00800           0
     20708 TIP3     4130     TIP3     OH2      OT      -0.834000       15.9994           0
     20709 TIP3     4130     TIP3     H1       HT       0.417000       1.00800           0
     20710 TIP3     4130     TIP3     H2       HT       0.417000       1.00800           0
     20711 TIP3     4131     TIP3     OH2      OT      -0.834000       15.9994           0
     20712 TIP3     4131     TIP3     H1       HT       0.417000       1.00800           0
     20713 TIP3     4131     TIP3     H2       HT       0.417000       1.00800           0
     20714 TIP3     4132     TIP3     OH2      OT      -0.834000       15.9994           0
     20715 TIP3     4132     TIP3     H1       HT       0.417000       1.00800           0
     20716 TIP3     4132     TIP3     H2       HT       0.417000       1.00800           0
     20717 TIP3     4133     TIP3     OH2      OT      -0.834000       15.9994           0
     20718 TIP3     4133     TIP3     H1       HT       0.417000       1.00800           0
     20719 TIP3     4133     TIP3     H2       HT       0.417000       1.00800           0
     20720 TIP3     4134     TIP3     OH2      OT      -0.834000       15.9994           0
     20721 TIP3     4134     TIP3     H1       HT       0.417000       1.00800           0
     20722 TIP3     4134     TIP3     H2       HT       0.417000       1.00800           0
     20723 TIP3     4135     TIP3     OH2      OT      -0.834000       15.9994           0
     20724 TIP3     4135     TIP3     H1       HT       0.417000       1.00800           0
     20725 TIP3     4135     TIP3     H2       HT       0.417000       1.00800           0
     20726 TIP3     4136     TIP3     OH2      OT      -0.834000       15.9994           0
     20727 TIP3     4136     TIP3     H1       HT       0.417000       1.00800           0
     20728 TIP3     4136     TIP3     H2       HT       0.417000       1.00800           0
     20729 TIP3     4137     TIP3     OH2      OT      -0.834000       15.9994           0
     20730 TIP3     4137     TIP3     H1       HT       0.417000       1.00800           0
     20731 TIP3     4137     TIP3     H2       HT       0.417000       1.00800           0
     20732 TIP3     4138     TIP3     OH2      OT      -0.834000       15.9994           0
     20733 TIP3     4138     TIP3     H1       HT       0.417000       1.00800           0
     20734 TIP3     4138     TIP3     H2       HT       0.417000       1.00800           0
     20735 TIP3     4139     TIP3     OH2      OT      -0.834000       15.9994           0
     20736 TIP3     4139     TIP3     H1       HT       0.417000       1.00800           0
     20737 TIP3     4139     TIP3     H2       HT       0.417000       1.00800           0
     20738 TIP3     4140     TIP3     OH2      OT      -0.834000       15.9994           0
     20739 TIP3     4140     TIP3     H1       HT       0.417000       1.00800           0
     20740 TIP3     4140     TIP3     H2       HT       0.417000       1.00800           0
     20741 TIP3     4141     TIP3     OH2      OT      -0.834000       15.9994           0
     20742 TIP3     4141     TIP3     H1       HT       0.417000       1.00800           0
     20743 TIP3     4141     TIP3     H2       HT       0.417000       1.00800           0
     20744 TIP3     4142     TIP3     OH2      OT      -0.834000       15.9994           0
     20745 TIP3     4142     TIP3     H1       HT       0.417000       1.00800           0
     20746 TIP3     4142     TIP3     H2       HT       0.417000       1.00800           0
     20747 TIP3     4143     TIP3     OH2      OT      -0.834000       15.9994           0
     20748 TIP3     4143     TIP3     H1       HT       0.417000       1.00800           0
     20749 TIP3     4143     TIP3     H2       HT       0.417000       1.00800           0
     20750 TIP3     4144     TIP3     OH2      OT      -0.834000       15.9994           0
     20751 TIP3     4144     TIP3     H1       HT       0.417000       1.00800           0
     20752 TIP3     4144     TIP3     H2       HT       0.417000       1.00800           0
     20753 TIP3     4145     TIP3     OH2      OT      -0.834000       15.9994           0
     20754 TIP3     4145     TIP3     H1       HT       0.417000       1.00800           0
     20755 TIP3     4145     TIP3     H2       HT       0.417000       1.00800           0
     20756 TIP3     4146     TIP3     OH2      OT      -0.834000       15.9994           0
     20757 TIP3     4146     TIP3     H1       HT       0.417000       1.00800           0
     20758 TIP3     4146     TIP3     H2       HT       0.417000       1.00800           0
     20759 TIP3     4147     TIP3     OH2      OT      -0.834000       15.9994           0
     20760 TIP3     4147     TIP3     H1       HT       0.417000       1.00800           0
     20761 TIP3     4147     TIP3     H2       HT       0.417000       1.00800           0
     20762 TIP3     4148     TIP3     OH2      OT      -0.834000       15.9994           0
     20763 TIP3     4148     TIP3     H1       HT       0.417000       1.00800           0
     20764 TIP3     4148     TIP3     H2       HT       0.417000       1.00800           0
     20765 TIP3     4149     TIP3     OH2      OT      -0.834000       15.9994           0
     20766 TIP3     4149     TIP3     H1       HT       0.417000       1.00800           0
     20767 TIP3     4149     TIP3     H2       HT       0.417000       1.00800           0
     20768 TIP3     4150     TIP3     OH2      OT      -0.834000       15.9994           0
     20769 TIP3     4150     TIP3     H1       HT       0.417000       1.00800           0
     20770 TIP3     4150     TIP3     H2       HT       0.417000       1.00800           0
     20771 TIP3     4151     TIP3     OH2      OT      -0.834000       15.9994           0
     20772 TIP3     4151     TIP3     H1       HT       0.417000       1.00800           0
     20773 TIP3     4151     TIP3     H2       HT       0.417000       1.00800           0
     20774 TIP3     4152     TIP3     OH2      OT      -0.834000       15.9994           0
     20775 TIP3     4152     TIP3     H1       HT       0.417000       1.00800           0
     20776 TIP3     4152     TIP3     H2       HT       0.417000       1.00800           0
     20777 TIP3     4153     TIP3     OH2      OT      -0.834000       15.9994           0
     20778 TIP3     4153     TIP3     H1       HT       0.417000       1.00800           0
     20779 TIP3     4153     TIP3     H2       HT       0.417000       1.00800           0
     20780 TIP3     4154     TIP3     OH2      OT      -0.834000       15.9994           0
     20781 TIP3     4154     TIP3     H1       HT       0.417000       1.00800           0
     20782 TIP3     4154     TIP3     H2       HT       0.417000       1.00800           0
     20783 TIP3     4155     TIP3     OH2      OT      -0.834000       15.9994           0
     20784 TIP3     4155     TIP3     H1       HT       0.417000       1.00800           0
     20785 TIP3     4155     TIP3     H2       HT       0.417000       1.00800           0
     20786 TIP3     4156     TIP3     OH2      OT      -0.834000       15.9994           0
     20787 TIP3     4156     TIP3     H1       HT       0.417000       1.00800           0
     20788 TIP3     4156     TIP3     H2       HT       0.417000       1.00800           0
     20789 TIP3     4157     TIP3     OH2      OT      -0.834000       15.9994           0
     20790 TIP3     4157     TIP3     H1       HT       0.417000       1.00800           0
     20791 TIP3     4157     TIP3     H2       HT       0.417000       1.00800           0
     20792 TIP3     4158     TIP3     OH2      OT      -0.834000       15.9994           0
     20793 TIP3     4158     TIP3     H1       HT       0.417000       1.00800           0
     20794 TIP3     4158     TIP3     H2       HT       0.417000       1.00800           0
     20795 TIP3     4159     TIP3     OH2      OT      -0.834000       15.9994           0
     20796 TIP3     4159     TIP3     H1       HT       0.417000       1.00800           0
     20797 TIP3     4159     TIP3     H2       HT       0.417000       1.00800           0
     20798 TIP3     4160     TIP3     OH2      OT      -0.834000       15.9994           0
     20799 TIP3     4160     TIP3     H1       HT       0.417000       1.00800           0
     20800 TIP3     4160     TIP3     H2       HT       0.417000       1.00800           0
     20801 TIP3     4161     TIP3     OH2      OT      -0.834000       15.9994           0
     20802 TIP3     4161     TIP3     H1       HT       0.417000       1.00800           0
     20803 TIP3     4161     TIP3     H2       HT       0.417000       1.00800           0
     20804 TIP3     4162     TIP3     OH2      OT      -0.834000       15.9994           0
     20805 TIP3     4162     TIP3     H1       HT       0.417000       1.00800           0
     20806 TIP3     4162     TIP3     H2       HT       0.417000       1.00800           0
     20807 TIP3     4163     TIP3     OH2      OT      -0.834000       15.9994           0
     20808 TIP3     4163     TIP3     H1       HT       0.417000       1.00800           0
     20809 TIP3     4163     TIP3     H2       HT       0.417000       1.00800           0
     20810 TIP3     4164     TIP3     OH2      OT      -0.834000       15.9994           0
     20811 TIP3     4164     TIP3     H1       HT       0.417000       1.00800           0
     20812 TIP3     4164     TIP3     H2       HT       0.417000       1.00800           0
     20813 TIP3     4165     TIP3     OH2      OT      -0.834000       15.9994           0
     20814 TIP3     4165     TIP3     H1       HT       0.417000       1.00800           0
     20815 TIP3     4165     TIP3     H2       HT       0.417000       1.00800           0
     20816 TIP3     4166     TIP3     OH2      OT      -0.834000       15.9994           0
     20817 TIP3     4166     TIP3     H1       HT       0.417000       1.00800           0
     20818 TIP3     4166     TIP3     H2       HT       0.417000       1.00800           0
     20819 TIP3     4167     TIP3     OH2      OT      -0.834000       15.9994           0
     20820 TIP3     4167     TIP3     H1       HT       0.417000       1.00800           0
     20821 TIP3     4167     TIP3     H2       HT       0.417000       1.00800           0
     20822 TIP3     4168     TIP3     OH2      OT      -0.834000       15.9994           0
     20823 TIP3     4168     TIP3     H1       HT       0.417000       1.00800           0
     20824 TIP3     4168     TIP3     H2       HT       0.417000       1.00800           0
     20825 TIP3     4169     TIP3     OH2      OT      -0.834000       15.9994           0
     20826 TIP3     4169     TIP3     H1       HT       0.417000       1.00800           0
     20827 TIP3     4169     TIP3     H2       HT       0.417000       1.00800           0
     20828 TIP3     4170     TIP3     OH2      OT      -0.834000       15.9994           0
     20829 TIP3     4170     TIP3     H1       HT       0.417000       1.00800           0
     20830 TIP3     4170     TIP3     H2       HT       0.417000       1.00800           0
     20831 TIP3     4171     TIP3     OH2      OT      -0.834000       15.9994           0
     20832 TIP3     4171     TIP3     H1       HT       0.417000       1.00800           0
     20833 TIP3     4171     TIP3     H2       HT       0.417000       1.00800           0
     20834 TIP3     4172     TIP3     OH2      OT      -0.834000       15.9994           0
     20835 TIP3     4172     TIP3     H1       HT       0.417000       1.00800           0
     20836 TIP3     4172     TIP3     H2       HT       0.417000       1.00800           0
     20837 TIP3     4173     TIP3     OH2      OT      -0.834000       15.9994           0
     20838 TIP3     4173     TIP3     H1       HT       0.417000       1.00800           0
     20839 TIP3     4173     TIP3     H2       HT       0.417000       1.00800           0
     20840 TIP3     4174     TIP3     OH2      OT      -0.834000       15.9994           0
     20841 TIP3     4174     TIP3     H1       HT       0.417000       1.00800           0
     20842 TIP3     4174     TIP3     H2       HT       0.417000       1.00800           0
     20843 TIP3     4175     TIP3     OH2      OT      -0.834000       15.9994           0
     20844 TIP3     4175     TIP3     H1       HT       0.417000       1.00800           0
     20845 TIP3     4175     TIP3     H2       HT       0.417000       1.00800           0
     20846 TIP3     4176     TIP3     OH2      OT      -0.834000       15.9994           0
     20847 TIP3     4176     TIP3     H1       HT       0.417000       1.00800           0
     20848 TIP3     4176     TIP3     H2       HT       0.417000       1.00800           0
     20849 TIP3     4177     TIP3     OH2      OT      -0.834000       15.9994           0
     20850 TIP3     4177     TIP3     H1       HT       0.417000       1.00800           0
     20851 TIP3     4177     TIP3     H2       HT       0.417000       1.00800           0
     20852 TIP3     4178     TIP3     OH2      OT      -0.834000       15.9994           0
     20853 TIP3     4178     TIP3     H1       HT       0.417000       1.00800           0
     20854 TIP3     4178     TIP3     H2       HT       0.417000       1.00800           0
     20855 TIP3     4179     TIP3     OH2      OT      -0.834000       15.9994           0
     20856 TIP3     4179     TIP3     H1       HT       0.417000       1.00800           0
     20857 TIP3     4179     TIP3     H2       HT       0.417000       1.00800           0
     20858 TIP3     4180     TIP3     OH2      OT      -0.834000       15.9994           0
     20859 TIP3     4180     TIP3     H1       HT       0.417000       1.00800           0
     20860 TIP3     4180     TIP3     H2       HT       0.417000       1.00800           0
     20861 TIP3     4181     TIP3     OH2      OT      -0.834000       15.9994           0
     20862 TIP3     4181     TIP3     H1       HT       0.417000       1.00800           0
     20863 TIP3     4181     TIP3     H2       HT       0.417000       1.00800           0
     20864 TIP3     4182     TIP3     OH2      OT      -0.834000       15.9994           0
     20865 TIP3     4182     TIP3     H1       HT       0.417000       1.00800           0
     20866 TIP3     4182     TIP3     H2       HT       0.417000       1.00800           0
     20867 TIP3     4183     TIP3     OH2      OT      -0.834000       15.9994           0
     20868 TIP3     4183     TIP3     H1       HT       0.417000       1.00800           0
     20869 TIP3     4183     TIP3     H2       HT       0.417000       1.00800           0
     20870 TIP3     4184     TIP3     OH2      OT      -0.834000       15.9994           0
     20871 TIP3     4184     TIP3     H1       HT       0.417000       1.00800           0
     20872 TIP3     4184     TIP3     H2       HT       0.417000       1.00800           0
     20873 TIP3     4185     TIP3     OH2      OT      -0.834000       15.9994           0
     20874 TIP3     4185     TIP3     H1       HT       0.417000       1.00800           0
     20875 TIP3     4185     TIP3     H2       HT       0.417000       1.00800           0
     20876 TIP3     4186     TIP3     OH2      OT      -0.834000       15.9994           0
     20877 TIP3     4186     TIP3     H1       HT       0.417000       1.00800           0
     20878 TIP3     4186     TIP3     H2       HT       0.417000       1.00800           0
     20879 TIP3     4187     TIP3     OH2      OT      -0.834000       15.9994           0
     20880 TIP3     4187     TIP3     H1       HT       0.417000       1.00800           0
     20881 TIP3     4187     TIP3     H2       HT       0.417000       1.00800           0
     20882 TIP3     4188     TIP3     OH2      OT      -0.834000       15.9994           0
     20883 TIP3     4188     TIP3     H1       HT       0.417000       1.00800           0
     20884 TIP3     4188     TIP3     H2       HT       0.417000       1.00800           0
     20885 TIP3     4189     TIP3     OH2      OT      -0.834000       15.9994           0
     20886 TIP3     4189     TIP3     H1       HT       0.417000       1.00800           0
     20887 TIP3     4189     TIP3     H2       HT       0.417000       1.00800           0
     20888 TIP3     4190     TIP3     OH2      OT      -0.834000       15.9994           0
     20889 TIP3     4190     TIP3     H1       HT       0.417000       1.00800           0
     20890 TIP3     4190     TIP3     H2       HT       0.417000       1.00800           0
     20891 TIP3     4191     TIP3     OH2      OT      -0.834000       15.9994           0
     20892 TIP3     4191     TIP3     H1       HT       0.417000       1.00800           0
     20893 TIP3     4191     TIP3     H2       HT       0.417000       1.00800           0
     20894 TIP3     4192     TIP3     OH2      OT      -0.834000       15.9994           0
     20895 TIP3     4192     TIP3     H1       HT       0.417000       1.00800           0
     20896 TIP3     4192     TIP3     H2       HT       0.417000       1.00800           0
     20897 TIP3     4193     TIP3     OH2      OT      -0.834000       15.9994           0
     20898 TIP3     4193     TIP3     H1       HT       0.417000       1.00800           0
     20899 TIP3     4193     TIP3     H2       HT       0.417000       1.00800           0
     20900 TIP3     4194     TIP3     OH2      OT      -0.834000       15.9994           0
     20901 TIP3     4194     TIP3     H1       HT       0.417000       1.00800           0
     20902 TIP3     4194     TIP3     H2       HT       0.417000       1.00800           0
     20903 TIP3     4195     TIP3     OH2      OT      -0.834000       15.9994           0
     20904 TIP3     4195     TIP3     H1       HT       0.417000       1.00800           0
     20905 TIP3     4195     TIP3     H2       HT       0.417000       1.00800           0
     20906 TIP3     4196     TIP3     OH2      OT      -0.834000       15.9994           0
     20907 TIP3     4196     TIP3     H1       HT       0.417000       1.00800           0
     20908 TIP3     4196     TIP3     H2       HT       0.417000       1.00800           0
     20909 TIP3     4197     TIP3     OH2      OT      -0.834000       15.9994           0
     20910 TIP3     4197     TIP3     H1       HT       0.417000       1.00800           0
     20911 TIP3     4197     TIP3     H2       HT       0.417000       1.00800           0
     20912 TIP3     4198     TIP3     OH2      OT      -0.834000       15.9994           0
     20913 TIP3     4198     TIP3     H1       HT       0.417000       1.00800           0
     20914 TIP3     4198     TIP3     H2       HT       0.417000       1.00800           0
     20915 TIP3     4199     TIP3     OH2      OT      -0.834000       15.9994           0
     20916 TIP3     4199     TIP3     H1       HT       0.417000       1.00800           0
     20917 TIP3     4199     TIP3     H2       HT       0.417000       1.00800           0
     20918 TIP3     4200     TIP3     OH2      OT      -0.834000       15.9994           0
     20919 TIP3     4200     TIP3     H1       HT       0.417000       1.00800           0
     20920 TIP3     4200     TIP3     H2       HT       0.417000       1.00800           0
     20921 TIP3     4201     TIP3     OH2      OT      -0.834000       15.9994           0
     20922 TIP3     4201     TIP3     H1       HT       0.417000       1.00800           0
     20923 TIP3     4201     TIP3     H2       HT       0.417000       1.00800           0
     20924 TIP3     4202     TIP3     OH2      OT      -0.834000       15.9994           0
     20925 TIP3     4202     TIP3     H1       HT       0.417000       1.00800           0
     20926 TIP3     4202     TIP3     H2       HT       0.417000       1.00800           0
     20927 TIP3     4203     TIP3     OH2      OT      -0.834000       15.9994           0
     20928 TIP3     4203     TIP3     H1       HT       0.417000       1.00800           0
     20929 TIP3     4203     TIP3     H2       HT       0.417000       1.00800           0
     20930 TIP3     4204     TIP3     OH2      OT      -0.834000       15.9994           0
     20931 TIP3     4204     TIP3     H1       HT       0.417000       1.00800           0
     20932 TIP3     4204     TIP3     H2       HT       0.417000       1.00800           0
     20933 TIP3     4205     TIP3     OH2      OT      -0.834000       15.9994           0
     20934 TIP3     4205     TIP3     H1       HT       0.417000       1.00800           0
     20935 TIP3     4205     TIP3     H2       HT       0.417000       1.00800           0
     20936 TIP3     4206     TIP3     OH2      OT      -0.834000       15.9994           0
     20937 TIP3     4206     TIP3     H1       HT       0.417000       1.00800           0
     20938 TIP3     4206     TIP3     H2       HT       0.417000       1.00800           0
     20939 TIP3     4207     TIP3     OH2      OT      -0.834000       15.9994           0
     20940 TIP3     4207     TIP3     H1       HT       0.417000       1.00800           0
     20941 TIP3     4207     TIP3     H2       HT       0.417000       1.00800           0
     20942 TIP3     4208     TIP3     OH2      OT      -0.834000       15.9994           0
     20943 TIP3     4208     TIP3     H1       HT       0.417000       1.00800           0
     20944 TIP3     4208     TIP3     H2       HT       0.417000       1.00800           0
     20945 TIP3     4209     TIP3     OH2      OT      -0.834000       15.9994           0
     20946 TIP3     4209     TIP3     H1       HT       0.417000       1.00800           0
     20947 TIP3     4209     TIP3     H2       HT       0.417000       1.00800           0
     20948 TIP3     4210     TIP3     OH2      OT      -0.834000       15.9994           0
     20949 TIP3     4210     TIP3     H1       HT       0.417000       1.00800           0
     20950 TIP3     4210     TIP3     H2       HT       0.417000       1.00800           0
     20951 TIP3     4211     TIP3     OH2      OT      -0.834000       15.9994           0
     20952 TIP3     4211     TIP3     H1       HT       0.417000       1.00800           0
     20953 TIP3     4211     TIP3     H2       HT       0.417000       1.00800           0
     20954 TIP3     4212     TIP3     OH2      OT      -0.834000       15.9994           0
     20955 TIP3     4212     TIP3     H1       HT       0.417000       1.00800           0
     20956 TIP3     4212     TIP3     H2       HT       0.417000       1.00800           0
     20957 TIP3     4213     TIP3     OH2      OT      -0.834000       15.9994           0
     20958 TIP3     4213     TIP3     H1       HT       0.417000       1.00800           0
     20959 TIP3     4213     TIP3     H2       HT       0.417000       1.00800           0
     20960 TIP3     4214     TIP3     OH2      OT      -0.834000       15.9994           0
     20961 TIP3     4214     TIP3     H1       HT       0.417000       1.00800           0
     20962 TIP3     4214     TIP3     H2       HT       0.417000       1.00800           0
     20963 TIP3     4215     TIP3     OH2      OT      -0.834000       15.9994           0
     20964 TIP3     4215     TIP3     H1       HT       0.417000       1.00800           0
     20965 TIP3     4215     TIP3     H2       HT       0.417000       1.00800           0
     20966 TIP3     4216     TIP3     OH2      OT      -0.834000       15.9994           0
     20967 TIP3     4216     TIP3     H1       HT       0.417000       1.00800           0
     20968 TIP3     4216     TIP3     H2       HT       0.417000       1.00800           0
     20969 TIP3     4217     TIP3     OH2      OT      -0.834000       15.9994           0
     20970 TIP3     4217     TIP3     H1       HT       0.417000       1.00800           0
     20971 TIP3     4217     TIP3     H2       HT       0.417000       1.00800           0
     20972 TIP3     4218     TIP3     OH2      OT      -0.834000       15.9994           0
     20973 TIP3     4218     TIP3     H1       HT       0.417000       1.00800           0
     20974 TIP3     4218     TIP3     H2       HT       0.417000       1.00800           0
     20975 TIP3     4219     TIP3     OH2      OT      -0.834000       15.9994           0
     20976 TIP3     4219     TIP3     H1       HT       0.417000       1.00800           0
     20977 TIP3     4219     TIP3     H2       HT       0.417000       1.00800           0
     20978 TIP3     4220     TIP3     OH2      OT      -0.834000       15.9994           0
     20979 TIP3     4220     TIP3     H1       HT       0.417000       1.00800           0
     20980 TIP3     4220     TIP3     H2       HT       0.417000       1.00800           0
     20981 TIP3     4221     TIP3     OH2      OT      -0.834000       15.9994           0
     20982 TIP3     4221     TIP3     H1       HT       0.417000       1.00800           0
     20983 TIP3     4221     TIP3     H2       HT       0.417000       1.00800           0
     20984 TIP3     4222     TIP3     OH2      OT      -0.834000       15.9994           0
     20985 TIP3     4222     TIP3     H1       HT       0.417000       1.00800           0
     20986 TIP3     4222     TIP3     H2       HT       0.417000       1.00800           0
     20987 TIP3     4223     TIP3     OH2      OT      -0.834000       15.9994           0
     20988 TIP3     4223     TIP3     H1       HT       0.417000       1.00800           0
     20989 TIP3     4223     TIP3     H2       HT       0.417000       1.00800           0
     20990 TIP3     4224     TIP3     OH2      OT      -0.834000       15.9994           0
     20991 TIP3     4224     TIP3     H1       HT       0.417000       1.00800           0
     20992 TIP3     4224     TIP3     H2       HT       0.417000       1.00800           0
     20993 TIP3     4225     TIP3     OH2      OT      -0.834000       15.9994           0
     20994 TIP3     4225     TIP3     H1       HT       0.417000       1.00800           0
     20995 TIP3     4225     TIP3     H2       HT       0.417000       1.00800           0
     20996 TIP3     4226     TIP3     OH2      OT      -0.834000       15.9994           0
     20997 TIP3     4226     TIP3     H1       HT       0.417000       1.00800           0
     20998 TIP3     4226     TIP3     H2       HT       0.417000       1.00800           0
     20999 TIP3     4227     TIP3     OH2      OT      -0.834000       15.9994           0
     21000 TIP3     4227     TIP3     H1       HT       0.417000       1.00800           0
     21001 TIP3     4227     TIP3     H2       HT       0.417000       1.00800           0
     21002 TIP3     4228     TIP3     OH2      OT      -0.834000       15.9994           0
     21003 TIP3     4228     TIP3     H1       HT       0.417000       1.00800           0
     21004 TIP3     4228     TIP3     H2       HT       0.417000       1.00800           0
     21005 TIP3     4229     TIP3     OH2      OT      -0.834000       15.9994           0
     21006 TIP3     4229     TIP3     H1       HT       0.417000       1.00800           0
     21007 TIP3     4229     TIP3     H2       HT       0.417000       1.00800           0
     21008 TIP3     4230     TIP3     OH2      OT      -0.834000       15.9994           0
     21009 TIP3     4230     TIP3     H1       HT       0.417000       1.00800           0
     21010 TIP3     4230     TIP3     H2       HT       0.417000       1.00800           0
     21011 TIP3     4231     TIP3     OH2      OT      -0.834000       15.9994           0
     21012 TIP3     4231     TIP3     H1       HT       0.417000       1.00800           0
     21013 TIP3     4231     TIP3     H2       HT       0.417000       1.00800           0
     21014 TIP3     4232     TIP3     OH2      OT      -0.834000       15.9994           0
     21015 TIP3     4232     TIP3     H1       HT       0.417000       1.00800           0
     21016 TIP3     4232     TIP3     H2       HT       0.417000       1.00800           0
     21017 TIP3     4233     TIP3     OH2      OT      -0.834000       15.9994           0
     21018 TIP3     4233     TIP3     H1       HT       0.417000       1.00800           0
     21019 TIP3     4233     TIP3     H2       HT       0.417000       1.00800           0
     21020 TIP3     4234     TIP3     OH2      OT      -0.834000       15.9994           0
     21021 TIP3     4234     TIP3     H1       HT       0.417000       1.00800           0
     21022 TIP3     4234     TIP3     H2       HT       0.417000       1.00800           0
     21023 TIP3     4235     TIP3     OH2      OT      -0.834000       15.9994           0
     21024 TIP3     4235     TIP3     H1       HT       0.417000       1.00800           0
     21025 TIP3     4235     TIP3     H2       HT       0.417000       1.00800           0
     21026 TIP3     4236     TIP3     OH2      OT      -0.834000       15.9994           0
     21027 TIP3     4236     TIP3     H1       HT       0.417000       1.00800           0
     21028 TIP3     4236     TIP3     H2       HT       0.417000       1.00800           0
     21029 TIP3     4237     TIP3     OH2      OT      -0.834000       15.9994           0
     21030 TIP3     4237     TIP3     H1       HT       0.417000       1.00800           0
     21031 TIP3     4237     TIP3     H2       HT       0.417000       1.00800           0
     21032 TIP3     4238     TIP3     OH2      OT      -0.834000       15.9994           0
     21033 TIP3     4238     TIP3     H1       HT       0.417000       1.00800           0
     21034 TIP3     4238     TIP3     H2       HT       0.417000       1.00800           0
     21035 TIP3     4239     TIP3     OH2      OT      -0.834000       15.9994           0
     21036 TIP3     4239     TIP3     H1       HT       0.417000       1.00800           0
     21037 TIP3     4239     TIP3     H2       HT       0.417000       1.00800           0
     21038 TIP3     4240     TIP3     OH2      OT      -0.834000       15.9994           0
     21039 TIP3     4240     TIP3     H1       HT       0.417000       1.00800           0
     21040 TIP3     4240     TIP3     H2       HT       0.417000       1.00800           0
     21041 TIP3     4241     TIP3     OH2      OT      -0.834000       15.9994           0
     21042 TIP3     4241     TIP3     H1       HT       0.417000       1.00800           0
     21043 TIP3     4241     TIP3     H2       HT       0.417000       1.00800           0
     21044 TIP3     4242     TIP3     OH2      OT      -0.834000       15.9994           0
     21045 TIP3     4242     TIP3     H1       HT       0.417000       1.00800           0
     21046 TIP3     4242     TIP3     H2       HT       0.417000       1.00800           0
     21047 TIP3     4243     TIP3     OH2      OT      -0.834000       15.9994           0
     21048 TIP3     4243     TIP3     H1       HT       0.417000       1.00800           0
     21049 TIP3     4243     TIP3     H2       HT       0.417000       1.00800           0
     21050 TIP3     4244     TIP3     OH2      OT      -0.834000       15.9994           0
     21051 TIP3     4244     TIP3     H1       HT       0.417000       1.00800           0
     21052 TIP3     4244     TIP3     H2       HT       0.417000       1.00800           0
     21053 TIP3     4245     TIP3     OH2      OT      -0.834000       15.9994           0
     21054 TIP3     4245     TIP3     H1       HT       0.417000       1.00800           0
     21055 TIP3     4245     TIP3     H2       HT       0.417000       1.00800           0
     21056 TIP3     4246     TIP3     OH2      OT      -0.834000       15.9994           0
     21057 TIP3     4246     TIP3     H1       HT       0.417000       1.00800           0
     21058 TIP3     4246     TIP3     H2       HT       0.417000       1.00800           0
     21059 TIP3     4247     TIP3     OH2      OT      -0.834000       15.9994           0
     21060 TIP3     4247     TIP3     H1       HT       0.417000       1.00800           0
     21061 TIP3     4247     TIP3     H2       HT       0.417000       1.00800           0
     21062 TIP3     4248     TIP3     OH2      OT      -0.834000       15.9994           0
     21063 TIP3     4248     TIP3     H1       HT       0.417000       1.00800           0
     21064 TIP3     4248     TIP3     H2       HT       0.417000       1.00800           0
     21065 TIP3     4249     TIP3     OH2      OT      -0.834000       15.9994           0
     21066 TIP3     4249     TIP3     H1       HT       0.417000       1.00800           0
     21067 TIP3     4249     TIP3     H2       HT       0.417000       1.00800           0
     21068 TIP3     4250     TIP3     OH2      OT      -0.834000       15.9994           0
     21069 TIP3     4250     TIP3     H1       HT       0.417000       1.00800           0
     21070 TIP3     4250     TIP3     H2       HT       0.417000       1.00800           0
     21071 TIP3     4251     TIP3     OH2      OT      -0.834000       15.9994           0
     21072 TIP3     4251     TIP3     H1       HT       0.417000       1.00800           0
     21073 TIP3     4251     TIP3     H2       HT       0.417000       1.00800           0
     21074 TIP3     4252     TIP3     OH2      OT      -0.834000       15.9994           0
     21075 TIP3     4252     TIP3     H1       HT       0.417000       1.00800           0
     21076 TIP3     4252     TIP3     H2       HT       0.417000       1.00800           0
     21077 TIP3     4253     TIP3     OH2      OT      -0.834000       15.9994           0
     21078 TIP3     4253     TIP3     H1       HT       0.417000       1.00800           0
     21079 TIP3     4253     TIP3     H2       HT       0.417000       1.00800           0
     21080 TIP3     4254     TIP3     OH2      OT      -0.834000       15.9994           0
     21081 TIP3     4254     TIP3     H1       HT       0.417000       1.00800           0
     21082 TIP3     4254     TIP3     H2       HT       0.417000       1.00800           0
     21083 TIP3     4255     TIP3     OH2      OT      -0.834000       15.9994           0
     21084 TIP3     4255     TIP3     H1       HT       0.417000       1.00800           0
     21085 TIP3     4255     TIP3     H2       HT       0.417000       1.00800           0
     21086 TIP3     4256     TIP3     OH2      OT      -0.834000       15.9994           0
     21087 TIP3     4256     TIP3     H1       HT       0.417000       1.00800           0
     21088 TIP3     4256     TIP3     H2       HT       0.417000       1.00800           0
     21089 TIP3     4257     TIP3     OH2      OT      -0.834000       15.9994           0
     21090 TIP3     4257     TIP3     H1       HT       0.417000       1.00800           0
     21091 TIP3     4257     TIP3     H2       HT       0.417000       1.00800           0
     21092 TIP3     4258     TIP3     OH2      OT      -0.834000       15.9994           0
     21093 TIP3     4258     TIP3     H1       HT       0.417000       1.00800           0
     21094 TIP3     4258     TIP3     H2       HT       0.417000       1.00800           0
     21095 TIP3     4259     TIP3     OH2      OT      -0.834000       15.9994           0
     21096 TIP3     4259     TIP3     H1       HT       0.417000       1.00800           0
     21097 TIP3     4259     TIP3     H2       HT       0.417000       1.00800           0
     21098 TIP3     4260     TIP3     OH2      OT      -0.834000       15.9994           0
     21099 TIP3     4260     TIP3     H1       HT       0.417000       1.00800           0
     21100 TIP3     4260     TIP3     H2       HT       0.417000       1.00800           0
     21101 TIP3     4261     TIP3     OH2      OT      -0.834000       15.9994           0
     21102 TIP3     4261     TIP3     H1       HT       0.417000       1.00800           0
     21103 TIP3     4261     TIP3     H2       HT       0.417000       1.00800           0
     21104 TIP3     4262     TIP3     OH2      OT      -0.834000       15.9994           0
     21105 TIP3     4262     TIP3     H1       HT       0.417000       1.00800           0
     21106 TIP3     4262     TIP3     H2       HT       0.417000       1.00800           0
     21107 TIP3     4263     TIP3     OH2      OT      -0.834000       15.9994           0
     21108 TIP3     4263     TIP3     H1       HT       0.417000       1.00800           0
     21109 TIP3     4263     TIP3     H2       HT       0.417000       1.00800           0
     21110 TIP3     4264     TIP3     OH2      OT      -0.834000       15.9994           0
     21111 TIP3     4264     TIP3     H1       HT       0.417000       1.00800           0
     21112 TIP3     4264     TIP3     H2       HT       0.417000       1.00800           0
     21113 TIP3     4265     TIP3     OH2      OT      -0.834000       15.9994           0
     21114 TIP3     4265     TIP3     H1       HT       0.417000       1.00800           0
     21115 TIP3     4265     TIP3     H2       HT       0.417000       1.00800           0
     21116 TIP3     4266     TIP3     OH2      OT      -0.834000       15.9994           0
     21117 TIP3     4266     TIP3     H1       HT       0.417000       1.00800           0
     21118 TIP3     4266     TIP3     H2       HT       0.417000       1.00800           0
     21119 TIP3     4267     TIP3     OH2      OT      -0.834000       15.9994           0
     21120 TIP3     4267     TIP3     H1       HT       0.417000       1.00800           0
     21121 TIP3     4267     TIP3     H2       HT       0.417000       1.00800           0
     21122 TIP3     4268     TIP3     OH2      OT      -0.834000       15.9994           0
     21123 TIP3     4268     TIP3     H1       HT       0.417000       1.00800           0
     21124 TIP3     4268     TIP3     H2       HT       0.417000       1.00800           0
     21125 TIP3     4269     TIP3     OH2      OT      -0.834000       15.9994           0
     21126 TIP3     4269     TIP3     H1       HT       0.417000       1.00800           0
     21127 TIP3     4269     TIP3     H2       HT       0.417000       1.00800           0
     21128 TIP3     4270     TIP3     OH2      OT      -0.834000       15.9994           0
     21129 TIP3     4270     TIP3     H1       HT       0.417000       1.00800           0
     21130 TIP3     4270     TIP3     H2       HT       0.417000       1.00800           0
     21131 TIP3     4271     TIP3     OH2      OT      -0.834000       15.9994           0
     21132 TIP3     4271     TIP3     H1       HT       0.417000       1.00800           0
     21133 TIP3     4271     TIP3     H2       HT       0.417000       1.00800           0
     21134 TIP3     4272     TIP3     OH2      OT      -0.834000       15.9994           0
     21135 TIP3     4272     TIP3     H1       HT       0.417000       1.00800           0
     21136 TIP3     4272     TIP3     H2       HT       0.417000       1.00800           0
     21137 TIP3     4273     TIP3     OH2      OT      -0.834000       15.9994           0
     21138 TIP3     4273     TIP3     H1       HT       0.417000       1.00800           0
     21139 TIP3     4273     TIP3     H2       HT       0.417000       1.00800           0
     21140 TIP3     4274     TIP3     OH2      OT      -0.834000       15.9994           0
     21141 TIP3     4274     TIP3     H1       HT       0.417000       1.00800           0
     21142 TIP3     4274     TIP3     H2       HT       0.417000       1.00800           0
     21143 TIP3     4275     TIP3     OH2      OT      -0.834000       15.9994           0
     21144 TIP3     4275     TIP3     H1       HT       0.417000       1.00800           0
     21145 TIP3     4275     TIP3     H2       HT       0.417000       1.00800           0
     21146 TIP3     4276     TIP3     OH2      OT      -0.834000       15.9994           0
     21147 TIP3     4276     TIP3     H1       HT       0.417000       1.00800           0
     21148 TIP3     4276     TIP3     H2       HT       0.417000       1.00800           0
     21149 TIP3     4277     TIP3     OH2      OT      -0.834000       15.9994           0
     21150 TIP3     4277     TIP3     H1       HT       0.417000       1.00800           0
     21151 TIP3     4277     TIP3     H2       HT       0.417000       1.00800           0
     21152 TIP3     4278     TIP3     OH2      OT      -0.834000       15.9994           0
     21153 TIP3     4278     TIP3     H1       HT       0.417000       1.00800           0
     21154 TIP3     4278     TIP3     H2       HT       0.417000       1.00800           0
     21155 TIP3     4279     TIP3     OH2      OT      -0.834000       15.9994           0
     21156 TIP3     4279     TIP3     H1       HT       0.417000       1.00800           0
     21157 TIP3     4279     TIP3     H2       HT       0.417000       1.00800           0
     21158 TIP3     4280     TIP3     OH2      OT      -0.834000       15.9994           0
     21159 TIP3     4280     TIP3     H1       HT       0.417000       1.00800           0
     21160 TIP3     4280     TIP3     H2       HT       0.417000       1.00800           0
     21161 TIP3     4281     TIP3     OH2      OT      -0.834000       15.9994           0
     21162 TIP3     4281     TIP3     H1       HT       0.417000       1.00800           0
     21163 TIP3     4281     TIP3     H2       HT       0.417000       1.00800           0
     21164 TIP3     4282     TIP3     OH2      OT      -0.834000       15.9994           0
     21165 TIP3     4282     TIP3     H1       HT       0.417000       1.00800           0
     21166 TIP3     4282     TIP3     H2       HT       0.417000       1.00800           0
     21167 TIP3     4283     TIP3     OH2      OT      -0.834000       15.9994           0
     21168 TIP3     4283     TIP3     H1       HT       0.417000       1.00800           0
     21169 TIP3     4283     TIP3     H2       HT       0.417000       1.00800           0
     21170 TIP3     4284     TIP3     OH2      OT      -0.834000       15.9994           0
     21171 TIP3     4284     TIP3     H1       HT       0.417000       1.00800           0
     21172 TIP3     4284     TIP3     H2       HT       0.417000       1.00800           0
     21173 TIP3     4285     TIP3     OH2      OT      -0.834000       15.9994           0
     21174 TIP3     4285     TIP3     H1       HT       0.417000       1.00800           0
     21175 TIP3     4285     TIP3     H2       HT       0.417000       1.00800           0
     21176 TIP3     4286     TIP3     OH2      OT      -0.834000       15.9994           0
     21177 TIP3     4286     TIP3     H1       HT       0.417000       1.00800           0
     21178 TIP3     4286     TIP3     H2       HT       0.417000       1.00800           0
     21179 TIP3     4287     TIP3     OH2      OT      -0.834000       15.9994           0
     21180 TIP3     4287     TIP3     H1       HT       0.417000       1.00800           0
     21181 TIP3     4287     TIP3     H2       HT       0.417000       1.00800           0
     21182 TIP3     4288     TIP3     OH2      OT      -0.834000       15.9994           0
     21183 TIP3     4288     TIP3     H1       HT       0.417000       1.00800           0
     21184 TIP3     4288     TIP3     H2       HT       0.417000       1.00800           0
     21185 TIP3     4289     TIP3     OH2      OT      -0.834000       15.9994           0
     21186 TIP3     4289     TIP3     H1       HT       0.417000       1.00800           0
     21187 TIP3     4289     TIP3     H2       HT       0.417000       1.00800           0
     21188 TIP3     4290     TIP3     OH2      OT      -0.834000       15.9994           0
     21189 TIP3     4290     TIP3     H1       HT       0.417000       1.00800           0
     21190 TIP3     4290     TIP3     H2       HT       0.417000       1.00800           0
     21191 TIP3     4291     TIP3     OH2      OT      -0.834000       15.9994           0
     21192 TIP3     4291     TIP3     H1       HT       0.417000       1.00800           0
     21193 TIP3     4291     TIP3     H2       HT       0.417000       1.00800           0
     21194 TIP3     4292     TIP3     OH2      OT      -0.834000       15.9994           0
     21195 TIP3     4292     TIP3     H1       HT       0.417000       1.00800           0
     21196 TIP3     4292     TIP3     H2       HT       0.417000       1.00800           0
     21197 TIP3     4293     TIP3     OH2      OT      -0.834000       15.9994           0
     21198 TIP3     4293     TIP3     H1       HT       0.417000       1.00800           0
     21199 TIP3     4293     TIP3     H2       HT       0.417000       1.00800           0
     21200 TIP3     4294     TIP3     OH2      OT      -0.834000       15.9994           0
     21201 TIP3     4294     TIP3     H1       HT       0.417000       1.00800           0
     21202 TIP3     4294     TIP3     H2       HT       0.417000       1.00800           0
     21203 TIP3     4295     TIP3     OH2      OT      -0.834000       15.9994           0
     21204 TIP3     4295     TIP3     H1       HT       0.417000       1.00800           0
     21205 TIP3     4295     TIP3     H2       HT       0.417000       1.00800           0
     21206 TIP3     4296     TIP3     OH2      OT      -0.834000       15.9994           0
     21207 TIP3     4296     TIP3     H1       HT       0.417000       1.00800           0
     21208 TIP3     4296     TIP3     H2       HT       0.417000       1.00800           0
     21209 TIP3     4297     TIP3     OH2      OT      -0.834000       15.9994           0
     21210 TIP3     4297     TIP3     H1       HT       0.417000       1.00800           0
     21211 TIP3     4297     TIP3     H2       HT       0.417000       1.00800           0
     21212 TIP3     4298     TIP3     OH2      OT      -0.834000       15.9994           0
     21213 TIP3     4298     TIP3     H1       HT       0.417000       1.00800           0
     21214 TIP3     4298     TIP3     H2       HT       0.417000       1.00800           0
     21215 TIP3     4299     TIP3     OH2      OT      -0.834000       15.9994           0
     21216 TIP3     4299     TIP3     H1       HT       0.417000       1.00800           0
     21217 TIP3     4299     TIP3     H2       HT       0.417000       1.00800           0
     21218 TIP3     4300     TIP3     OH2      OT      -0.834000       15.9994           0
     21219 TIP3     4300     TIP3     H1       HT       0.417000       1.00800           0
     21220 TIP3     4300     TIP3     H2       HT       0.417000       1.00800           0
     21221 TIP3     4301     TIP3     OH2      OT      -0.834000       15.9994           0
     21222 TIP3     4301     TIP3     H1       HT       0.417000       1.00800           0
     21223 TIP3     4301     TIP3     H2       HT       0.417000       1.00800           0
     21224 TIP3     4302     TIP3     OH2      OT      -0.834000       15.9994           0
     21225 TIP3     4302     TIP3     H1       HT       0.417000       1.00800           0
     21226 TIP3     4302     TIP3     H2       HT       0.417000       1.00800           0
     21227 TIP3     4303     TIP3     OH2      OT      -0.834000       15.9994           0
     21228 TIP3     4303     TIP3     H1       HT       0.417000       1.00800           0
     21229 TIP3     4303     TIP3     H2       HT       0.417000       1.00800           0
     21230 TIP3     4304     TIP3     OH2      OT      -0.834000       15.9994           0
     21231 TIP3     4304     TIP3     H1       HT       0.417000       1.00800           0
     21232 TIP3     4304     TIP3     H2       HT       0.417000       1.00800           0
     21233 TIP3     4305     TIP3     OH2      OT      -0.834000       15.9994           0
     21234 TIP3     4305     TIP3     H1       HT       0.417000       1.00800           0
     21235 TIP3     4305     TIP3     H2       HT       0.417000       1.00800           0
     21236 TIP3     4306     TIP3     OH2      OT      -0.834000       15.9994           0
     21237 TIP3     4306     TIP3     H1       HT       0.417000       1.00800           0
     21238 TIP3     4306     TIP3     H2       HT       0.417000       1.00800           0
     21239 TIP3     4307     TIP3     OH2      OT      -0.834000       15.9994           0
     21240 TIP3     4307     TIP3     H1       HT       0.417000       1.00800           0
     21241 TIP3     4307     TIP3     H2       HT       0.417000       1.00800           0
     21242 TIP3     4308     TIP3     OH2      OT      -0.834000       15.9994           0
     21243 TIP3     4308     TIP3     H1       HT       0.417000       1.00800           0
     21244 TIP3     4308     TIP3     H2       HT       0.417000       1.00800           0
     21245 TIP3     4309     TIP3     OH2      OT      -0.834000       15.9994           0
     21246 TIP3     4309     TIP3     H1       HT       0.417000       1.00800           0
     21247 TIP3     4309     TIP3     H2       HT       0.417000       1.00800           0
     21248 TIP3     4310     TIP3     OH2      OT      -0.834000       15.9994           0
     21249 TIP3     4310     TIP3     H1       HT       0.417000       1.00800           0
     21250 TIP3     4310     TIP3     H2       HT       0.417000       1.00800           0
     21251 TIP3     4311     TIP3     OH2      OT      -0.834000       15.9994           0
     21252 TIP3     4311     TIP3     H1       HT       0.417000       1.00800           0
     21253 TIP3     4311     TIP3     H2       HT       0.417000       1.00800           0
     21254 TIP3     4312     TIP3     OH2      OT      -0.834000       15.9994           0
     21255 TIP3     4312     TIP3     H1       HT       0.417000       1.00800           0
     21256 TIP3     4312     TIP3     H2       HT       0.417000       1.00800           0
     21257 TIP3     4313     TIP3     OH2      OT      -0.834000       15.9994           0
     21258 TIP3     4313     TIP3     H1       HT       0.417000       1.00800           0
     21259 TIP3     4313     TIP3     H2       HT       0.417000       1.00800           0
     21260 TIP3     4314     TIP3     OH2      OT      -0.834000       15.9994           0
     21261 TIP3     4314     TIP3     H1       HT       0.417000       1.00800           0
     21262 TIP3     4314     TIP3     H2       HT       0.417000       1.00800           0
     21263 TIP3     4315     TIP3     OH2      OT      -0.834000       15.9994           0
     21264 TIP3     4315     TIP3     H1       HT       0.417000       1.00800           0
     21265 TIP3     4315     TIP3     H2       HT       0.417000       1.00800           0
     21266 TIP3     4316     TIP3     OH2      OT      -0.834000       15.9994           0
     21267 TIP3     4316     TIP3     H1       HT       0.417000       1.00800           0
     21268 TIP3     4316     TIP3     H2       HT       0.417000       1.00800           0
     21269 TIP3     4317     TIP3     OH2      OT      -0.834000       15.9994           0
     21270 TIP3     4317     TIP3     H1       HT       0.417000       1.00800           0
     21271 TIP3     4317     TIP3     H2       HT       0.417000       1.00800           0
     21272 TIP3     4318     TIP3     OH2      OT      -0.834000       15.9994           0
     21273 TIP3     4318     TIP3     H1       HT       0.417000       1.00800           0
     21274 TIP3     4318     TIP3     H2       HT       0.417000       1.00800           0
     21275 TIP3     4319     TIP3     OH2      OT      -0.834000       15.9994           0
     21276 TIP3     4319     TIP3     H1       HT       0.417000       1.00800           0
     21277 TIP3     4319     TIP3     H2       HT       0.417000       1.00800           0
     21278 TIP3     4320     TIP3     OH2      OT      -0.834000       15.9994           0
     21279 TIP3     4320     TIP3     H1       HT       0.417000       1.00800           0
     21280 TIP3     4320     TIP3     H2       HT       0.417000       1.00800           0
     21281 TIP3     4321     TIP3     OH2      OT      -0.834000       15.9994           0
     21282 TIP3     4321     TIP3     H1       HT       0.417000       1.00800           0
     21283 TIP3     4321     TIP3     H2       HT       0.417000       1.00800           0
     21284 TIP3     4322     TIP3     OH2      OT      -0.834000       15.9994           0
     21285 TIP3     4322     TIP3     H1       HT       0.417000       1.00800           0
     21286 TIP3     4322     TIP3     H2       HT       0.417000       1.00800           0
     21287 TIP3     4323     TIP3     OH2      OT      -0.834000       15.9994           0
     21288 TIP3     4323     TIP3     H1       HT       0.417000       1.00800           0
     21289 TIP3     4323     TIP3     H2       HT       0.417000       1.00800           0
     21290 TIP3     4324     TIP3     OH2      OT      -0.834000       15.9994           0
     21291 TIP3     4324     TIP3     H1       HT       0.417000       1.00800           0
     21292 TIP3     4324     TIP3     H2       HT       0.417000       1.00800           0
     21293 TIP3     4325     TIP3     OH2      OT      -0.834000       15.9994           0
     21294 TIP3     4325     TIP3     H1       HT       0.417000       1.00800           0
     21295 TIP3     4325     TIP3     H2       HT       0.417000       1.00800           0
     21296 TIP3     4326     TIP3     OH2      OT      -0.834000       15.9994           0
     21297 TIP3     4326     TIP3     H1       HT       0.417000       1.00800           0
     21298 TIP3     4326     TIP3     H2       HT       0.417000       1.00800           0
     21299 TIP3     4327     TIP3     OH2      OT      -0.834000       15.9994           0
     21300 TIP3     4327     TIP3     H1       HT       0.417000       1.00800           0
     21301 TIP3     4327     TIP3     H2       HT       0.417000       1.00800           0
     21302 TIP3     4328     TIP3     OH2      OT      -0.834000       15.9994           0
     21303 TIP3     4328     TIP3     H1       HT       0.417000       1.00800           0
     21304 TIP3     4328     TIP3     H2       HT       0.417000       1.00800           0
     21305 TIP3     4329     TIP3     OH2      OT      -0.834000       15.9994           0
     21306 TIP3     4329     TIP3     H1       HT       0.417000       1.00800           0
     21307 TIP3     4329     TIP3     H2       HT       0.417000       1.00800           0
     21308 TIP3     4330     TIP3     OH2      OT      -0.834000       15.9994           0
     21309 TIP3     4330     TIP3     H1       HT       0.417000       1.00800           0
     21310 TIP3     4330     TIP3     H2       HT       0.417000       1.00800           0
     21311 TIP3     4331     TIP3     OH2      OT      -0.834000       15.9994           0
     21312 TIP3     4331     TIP3     H1       HT       0.417000       1.00800           0
     21313 TIP3     4331     TIP3     H2       HT       0.417000       1.00800           0
     21314 TIP3     4332     TIP3     OH2      OT      -0.834000       15.9994           0
     21315 TIP3     4332     TIP3     H1       HT       0.417000       1.00800           0
     21316 TIP3     4332     TIP3     H2       HT       0.417000       1.00800           0
     21317 TIP3     4333     TIP3     OH2      OT      -0.834000       15.9994           0
     21318 TIP3     4333     TIP3     H1       HT       0.417000       1.00800           0
     21319 TIP3     4333     TIP3     H2       HT       0.417000       1.00800           0
     21320 TIP3     4334     TIP3     OH2      OT      -0.834000       15.9994           0
     21321 TIP3     4334     TIP3     H1       HT       0.417000       1.00800           0
     21322 TIP3     4334     TIP3     H2       HT       0.417000       1.00800           0
     21323 TIP3     4335     TIP3     OH2      OT      -0.834000       15.9994           0
     21324 TIP3     4335     TIP3     H1       HT       0.417000       1.00800           0
     21325 TIP3     4335     TIP3     H2       HT       0.417000       1.00800           0
     21326 TIP3     4336     TIP3     OH2      OT      -0.834000       15.9994           0
     21327 TIP3     4336     TIP3     H1       HT       0.417000       1.00800           0
     21328 TIP3     4336     TIP3     H2       HT       0.417000       1.00800           0
     21329 TIP3     4337     TIP3     OH2      OT      -0.834000       15.9994           0
     21330 TIP3     4337     TIP3     H1       HT       0.417000       1.00800           0
     21331 TIP3     4337     TIP3     H2       HT       0.417000       1.00800           0
     21332 TIP3     4338     TIP3     OH2      OT      -0.834000       15.9994           0
     21333 TIP3     4338     TIP3     H1       HT       0.417000       1.00800           0
     21334 TIP3     4338     TIP3     H2       HT       0.417000       1.00800           0
     21335 TIP3     4339     TIP3     OH2      OT      -0.834000       15.9994           0
     21336 TIP3     4339     TIP3     H1       HT       0.417000       1.00800           0
     21337 TIP3     4339     TIP3     H2       HT       0.417000       1.00800           0
     21338 TIP3     4340     TIP3     OH2      OT      -0.834000       15.9994           0
     21339 TIP3     4340     TIP3     H1       HT       0.417000       1.00800           0
     21340 TIP3     4340     TIP3     H2       HT       0.417000       1.00800           0
     21341 TIP3     4341     TIP3     OH2      OT      -0.834000       15.9994           0
     21342 TIP3     4341     TIP3     H1       HT       0.417000       1.00800           0
     21343 TIP3     4341     TIP3     H2       HT       0.417000       1.00800           0
     21344 TIP3     4342     TIP3     OH2      OT      -0.834000       15.9994           0
     21345 TIP3     4342     TIP3     H1       HT       0.417000       1.00800           0
     21346 TIP3     4342     TIP3     H2       HT       0.417000       1.00800           0
     21347 TIP3     4343     TIP3     OH2      OT      -0.834000       15.9994           0
     21348 TIP3     4343     TIP3     H1       HT       0.417000       1.00800           0
     21349 TIP3     4343     TIP3     H2       HT       0.417000       1.00800           0
     21350 TIP3     4344     TIP3     OH2      OT      -0.834000       15.9994           0
     21351 TIP3     4344     TIP3     H1       HT       0.417000       1.00800           0
     21352 TIP3     4344     TIP3     H2       HT       0.417000       1.00800           0
     21353 TIP3     4345     TIP3     OH2      OT      -0.834000       15.9994           0
     21354 TIP3     4345     TIP3     H1       HT       0.417000       1.00800           0
     21355 TIP3     4345     TIP3     H2       HT       0.417000       1.00800           0
     21356 TIP3     4346     TIP3     OH2      OT      -0.834000       15.9994           0
     21357 TIP3     4346     TIP3     H1       HT       0.417000       1.00800           0
     21358 TIP3     4346     TIP3     H2       HT       0.417000       1.00800           0
     21359 TIP3     4347     TIP3     OH2      OT      -0.834000       15.9994           0
     21360 TIP3     4347     TIP3     H1       HT       0.417000       1.00800           0
     21361 TIP3     4347     TIP3     H2       HT       0.417000       1.00800           0
     21362 TIP3     4348     TIP3     OH2      OT      -0.834000       15.9994           0
     21363 TIP3     4348     TIP3     H1       HT       0.417000       1.00800           0
     21364 TIP3     4348     TIP3     H2       HT       0.417000       1.00800           0
     21365 TIP3     4349     TIP3     OH2      OT      -0.834000       15.9994           0
     21366 TIP3     4349     TIP3     H1       HT       0.417000       1.00800           0
     21367 TIP3     4349     TIP3     H2       HT       0.417000       1.00800           0
     21368 TIP3     4350     TIP3     OH2      OT      -0.834000       15.9994           0
     21369 TIP3     4350     TIP3     H1       HT       0.417000       1.00800           0
     21370 TIP3     4350     TIP3     H2       HT       0.417000       1.00800           0
     21371 TIP3     4351     TIP3     OH2      OT      -0.834000       15.9994           0
     21372 TIP3     4351     TIP3     H1       HT       0.417000       1.00800           0
     21373 TIP3     4351     TIP3     H2       HT       0.417000       1.00800           0
     21374 TIP3     4352     TIP3     OH2      OT      -0.834000       15.9994           0
     21375 TIP3     4352     TIP3     H1       HT       0.417000       1.00800           0
     21376 TIP3     4352     TIP3     H2       HT       0.417000       1.00800           0
     21377 TIP3     4353     TIP3     OH2      OT      -0.834000       15.9994           0
     21378 TIP3     4353     TIP3     H1       HT       0.417000       1.00800           0
     21379 TIP3     4353     TIP3     H2       HT       0.417000       1.00800           0
     21380 TIP3     4354     TIP3     OH2      OT      -0.834000       15.9994           0
     21381 TIP3     4354     TIP3     H1       HT       0.417000       1.00800           0
     21382 TIP3     4354     TIP3     H2       HT       0.417000       1.00800           0
     21383 TIP3     4355     TIP3     OH2      OT      -0.834000       15.9994           0
     21384 TIP3     4355     TIP3     H1       HT       0.417000       1.00800           0
     21385 TIP3     4355     TIP3     H2       HT       0.417000       1.00800           0
     21386 TIP3     4356     TIP3     OH2      OT      -0.834000       15.9994           0
     21387 TIP3     4356     TIP3     H1       HT       0.417000       1.00800           0
     21388 TIP3     4356     TIP3     H2       HT       0.417000       1.00800           0
     21389 TIP3     4357     TIP3     OH2      OT      -0.834000       15.9994           0
     21390 TIP3     4357     TIP3     H1       HT       0.417000       1.00800           0
     21391 TIP3     4357     TIP3     H2       HT       0.417000       1.00800           0
     21392 TIP3     4358     TIP3     OH2      OT      -0.834000       15.9994           0
     21393 TIP3     4358     TIP3     H1       HT       0.417000       1.00800           0
     21394 TIP3     4358     TIP3     H2       HT       0.417000       1.00800           0
     21395 TIP3     4359     TIP3     OH2      OT      -0.834000       15.9994           0
     21396 TIP3     4359     TIP3     H1       HT       0.417000       1.00800           0
     21397 TIP3     4359     TIP3     H2       HT       0.417000       1.00800           0
     21398 TIP3     4360     TIP3     OH2      OT      -0.834000       15.9994           0
     21399 TIP3     4360     TIP3     H1       HT       0.417000       1.00800           0
     21400 TIP3     4360     TIP3     H2       HT       0.417000       1.00800           0
     21401 TIP3     4361     TIP3     OH2      OT      -0.834000       15.9994           0
     21402 TIP3     4361     TIP3     H1       HT       0.417000       1.00800           0
     21403 TIP3     4361     TIP3     H2       HT       0.417000       1.00800           0
     21404 TIP3     4362     TIP3     OH2      OT      -0.834000       15.9994           0
     21405 TIP3     4362     TIP3     H1       HT       0.417000       1.00800           0
     21406 TIP3     4362     TIP3     H2       HT       0.417000       1.00800           0
     21407 TIP3     4363     TIP3     OH2      OT      -0.834000       15.9994           0
     21408 TIP3     4363     TIP3     H1       HT       0.417000       1.00800           0
     21409 TIP3     4363     TIP3     H2       HT       0.417000       1.00800           0
     21410 TIP3     4364     TIP3     OH2      OT      -0.834000       15.9994           0
     21411 TIP3     4364     TIP3     H1       HT       0.417000       1.00800           0
     21412 TIP3     4364     TIP3     H2       HT       0.417000       1.00800           0
     21413 TIP3     4365     TIP3     OH2      OT      -0.834000       15.9994           0
     21414 TIP3     4365     TIP3     H1       HT       0.417000       1.00800           0
     21415 TIP3     4365     TIP3     H2       HT       0.417000       1.00800           0
     21416 TIP3     4366     TIP3     OH2      OT      -0.834000       15.9994           0
     21417 TIP3     4366     TIP3     H1       HT       0.417000       1.00800           0
     21418 TIP3     4366     TIP3     H2       HT       0.417000       1.00800           0
     21419 TIP3     4367     TIP3     OH2      OT      -0.834000       15.9994           0
     21420 TIP3     4367     TIP3     H1       HT       0.417000       1.00800           0
     21421 TIP3     4367     TIP3     H2       HT       0.417000       1.00800           0
     21422 TIP3     4368     TIP3     OH2      OT      -0.834000       15.9994           0
     21423 TIP3     4368     TIP3     H1       HT       0.417000       1.00800           0
     21424 TIP3     4368     TIP3     H2       HT       0.417000       1.00800           0
     21425 TIP3     4369     TIP3     OH2      OT      -0.834000       15.9994           0
     21426 TIP3     4369     TIP3     H1       HT       0.417000       1.00800           0
     21427 TIP3     4369     TIP3     H2       HT       0.417000       1.00800           0
     21428 TIP3     4370     TIP3     OH2      OT      -0.834000       15.9994           0
     21429 TIP3     4370     TIP3     H1       HT       0.417000       1.00800           0
     21430 TIP3     4370     TIP3     H2       HT       0.417000       1.00800           0
     21431 TIP3     4371     TIP3     OH2      OT      -0.834000       15.9994           0
     21432 TIP3     4371     TIP3     H1       HT       0.417000       1.00800           0
     21433 TIP3     4371     TIP3     H2       HT       0.417000       1.00800           0
     21434 TIP3     4372     TIP3     OH2      OT      -0.834000       15.9994           0
     21435 TIP3     4372     TIP3     H1       HT       0.417000       1.00800           0
     21436 TIP3     4372     TIP3     H2       HT       0.417000       1.00800           0
     21437 TIP3     4373     TIP3     OH2      OT      -0.834000       15.9994           0
     21438 TIP3     4373     TIP3     H1       HT       0.417000       1.00800           0
     21439 TIP3     4373     TIP3     H2       HT       0.417000       1.00800           0
     21440 TIP3     4374     TIP3     OH2      OT      -0.834000       15.9994           0
     21441 TIP3     4374     TIP3     H1       HT       0.417000       1.00800           0
     21442 TIP3     4374     TIP3     H2       HT       0.417000       1.00800           0
     21443 TIP3     4375     TIP3     OH2      OT      -0.834000       15.9994           0
     21444 TIP3     4375     TIP3     H1       HT       0.417000       1.00800           0
     21445 TIP3     4375     TIP3     H2       HT       0.417000       1.00800           0
     21446 TIP3     4376     TIP3     OH2      OT      -0.834000       15.9994           0
     21447 TIP3     4376     TIP3     H1       HT       0.417000       1.00800           0
     21448 TIP3     4376     TIP3     H2       HT       0.417000       1.00800           0
     21449 TIP3     4377     TIP3     OH2      OT      -0.834000       15.9994           0
     21450 TIP3     4377     TIP3     H1       HT       0.417000       1.00800           0
     21451 TIP3     4377     TIP3     H2       HT       0.417000       1.00800           0
     21452 TIP3     4378     TIP3     OH2      OT      -0.834000       15.9994           0
     21453 TIP3     4378     TIP3     H1       HT       0.417000       1.00800           0
     21454 TIP3     4378     TIP3     H2       HT       0.417000       1.00800           0
     21455 TIP3     4379     TIP3     OH2      OT      -0.834000       15.9994           0
     21456 TIP3     4379     TIP3     H1       HT       0.417000       1.00800           0
     21457 TIP3     4379     TIP3     H2       HT       0.417000       1.00800           0
     21458 TIP3     4380     TIP3     OH2      OT      -0.834000       15.9994           0
     21459 TIP3     4380     TIP3     H1       HT       0.417000       1.00800           0
     21460 TIP3     4380     TIP3     H2       HT       0.417000       1.00800           0
     21461 TIP3     4381     TIP3     OH2      OT      -0.834000       15.9994           0
     21462 TIP3     4381     TIP3     H1       HT       0.417000       1.00800           0
     21463 TIP3     4381     TIP3     H2       HT       0.417000       1.00800           0
     21464 TIP3     4382     TIP3     OH2      OT      -0.834000       15.9994           0
     21465 TIP3     4382     TIP3     H1       HT       0.417000       1.00800           0
     21466 TIP3     4382     TIP3     H2       HT       0.417000       1.00800           0
     21467 TIP3     4383     TIP3     OH2      OT      -0.834000       15.9994           0
     21468 TIP3     4383     TIP3     H1       HT       0.417000       1.00800           0
     21469 TIP3     4383     TIP3     H2       HT       0.417000       1.00800           0
     21470 TIP3     4384     TIP3     OH2      OT      -0.834000       15.9994           0
     21471 TIP3     4384     TIP3     H1       HT       0.417000       1.00800           0
     21472 TIP3     4384     TIP3     H2       HT       0.417000       1.00800           0
     21473 TIP3     4385     TIP3     OH2      OT      -0.834000       15.9994           0
     21474 TIP3     4385     TIP3     H1       HT       0.417000       1.00800           0
     21475 TIP3     4385     TIP3     H2       HT       0.417000       1.00800           0
     21476 TIP3     4386     TIP3     OH2      OT      -0.834000       15.9994           0
     21477 TIP3     4386     TIP3     H1       HT       0.417000       1.00800           0
     21478 TIP3     4386     TIP3     H2       HT       0.417000       1.00800           0
     21479 TIP3     4387     TIP3     OH2      OT      -0.834000       15.9994           0
     21480 TIP3     4387     TIP3     H1       HT       0.417000       1.00800           0
     21481 TIP3     4387     TIP3     H2       HT       0.417000       1.00800           0
     21482 TIP3     4388     TIP3     OH2      OT      -0.834000       15.9994           0
     21483 TIP3     4388     TIP3     H1       HT       0.417000       1.00800           0
     21484 TIP3     4388     TIP3     H2       HT       0.417000       1.00800           0
     21485 TIP3     4389     TIP3     OH2      OT      -0.834000       15.9994           0
     21486 TIP3     4389     TIP3     H1       HT       0.417000       1.00800           0
     21487 TIP3     4389     TIP3     H2       HT       0.417000       1.00800           0
     21488 TIP3     4390     TIP3     OH2      OT      -0.834000       15.9994           0
     21489 TIP3     4390     TIP3     H1       HT       0.417000       1.00800           0
     21490 TIP3     4390     TIP3     H2       HT       0.417000       1.00800           0
     21491 TIP3     4391     TIP3     OH2      OT      -0.834000       15.9994           0
     21492 TIP3     4391     TIP3     H1       HT       0.417000       1.00800           0
     21493 TIP3     4391     TIP3     H2       HT       0.417000       1.00800           0
     21494 TIP3     4392     TIP3     OH2      OT      -0.834000       15.9994           0
     21495 TIP3     4392     TIP3     H1       HT       0.417000       1.00800           0
     21496 TIP3     4392     TIP3     H2       HT       0.417000       1.00800           0
     21497 TIP3     4393     TIP3     OH2      OT      -0.834000       15.9994           0
     21498 TIP3     4393     TIP3     H1       HT       0.417000       1.00800           0
     21499 TIP3     4393     TIP3     H2       HT       0.417000       1.00800           0
     21500 TIP3     4394     TIP3     OH2      OT      -0.834000       15.9994           0
     21501 TIP3     4394     TIP3     H1       HT       0.417000       1.00800           0
     21502 TIP3     4394     TIP3     H2       HT       0.417000       1.00800           0
     21503 TIP3     4395     TIP3     OH2      OT      -0.834000       15.9994           0
     21504 TIP3     4395     TIP3     H1       HT       0.417000       1.00800           0
     21505 TIP3     4395     TIP3     H2       HT       0.417000       1.00800           0
     21506 TIP3     4396     TIP3     OH2      OT      -0.834000       15.9994           0
     21507 TIP3     4396     TIP3     H1       HT       0.417000       1.00800           0
     21508 TIP3     4396     TIP3     H2       HT       0.417000       1.00800           0
     21509 TIP3     4397     TIP3     OH2      OT      -0.834000       15.9994           0
     21510 TIP3     4397     TIP3     H1       HT       0.417000       1.00800           0
     21511 TIP3     4397     TIP3     H2       HT       0.417000       1.00800           0
     21512 TIP3     4398     TIP3     OH2      OT      -0.834000       15.9994           0
     21513 TIP3     4398     TIP3     H1       HT       0.417000       1.00800           0
     21514 TIP3     4398     TIP3     H2       HT       0.417000       1.00800           0
     21515 TIP3     4399     TIP3     OH2      OT      -0.834000       15.9994           0
     21516 TIP3     4399     TIP3     H1       HT       0.417000       1.00800           0
     21517 TIP3     4399     TIP3     H2       HT       0.417000       1.00800           0
     21518 TIP3     4400     TIP3     OH2      OT      -0.834000       15.9994           0
     21519 TIP3     4400     TIP3     H1       HT       0.417000       1.00800           0
     21520 TIP3     4400     TIP3     H2       HT       0.417000       1.00800           0
     21521 TIP3     4401     TIP3     OH2      OT      -0.834000       15.9994           0
     21522 TIP3     4401     TIP3     H1       HT       0.417000       1.00800           0
     21523 TIP3     4401     TIP3     H2       HT       0.417000       1.00800           0
     21524 TIP3     4402     TIP3     OH2      OT      -0.834000       15.9994           0
     21525 TIP3     4402     TIP3     H1       HT       0.417000       1.00800           0
     21526 TIP3     4402     TIP3     H2       HT       0.417000       1.00800           0
     21527 TIP3     4403     TIP3     OH2      OT      -0.834000       15.9994           0
     21528 TIP3     4403     TIP3     H1       HT       0.417000       1.00800           0
     21529 TIP3     4403     TIP3     H2       HT       0.417000       1.00800           0
     21530 TIP3     4404     TIP3     OH2      OT      -0.834000       15.9994           0
     21531 TIP3     4404     TIP3     H1       HT       0.417000       1.00800           0
     21532 TIP3     4404     TIP3     H2       HT       0.417000       1.00800           0
     21533 TIP3     4405     TIP3     OH2      OT      -0.834000       15.9994           0
     21534 TIP3     4405     TIP3     H1       HT       0.417000       1.00800           0
     21535 TIP3     4405     TIP3     H2       HT       0.417000       1.00800           0
     21536 TIP3     4406     TIP3     OH2      OT      -0.834000       15.9994           0
     21537 TIP3     4406     TIP3     H1       HT       0.417000       1.00800           0
     21538 TIP3     4406     TIP3     H2       HT       0.417000       1.00800           0
     21539 TIP3     4407     TIP3     OH2      OT      -0.834000       15.9994           0
     21540 TIP3     4407     TIP3     H1       HT       0.417000       1.00800           0
     21541 TIP3     4407     TIP3     H2       HT       0.417000       1.00800           0
     21542 TIP3     4408     TIP3     OH2      OT      -0.834000       15.9994           0
     21543 TIP3     4408     TIP3     H1       HT       0.417000       1.00800           0
     21544 TIP3     4408     TIP3     H2       HT       0.417000       1.00800           0
     21545 TIP3     4409     TIP3     OH2      OT      -0.834000       15.9994           0
     21546 TIP3     4409     TIP3     H1       HT       0.417000       1.00800           0
     21547 TIP3     4409     TIP3     H2       HT       0.417000       1.00800           0
     21548 TIP3     4410     TIP3     OH2      OT      -0.834000       15.9994           0
     21549 TIP3     4410     TIP3     H1       HT       0.417000       1.00800           0
     21550 TIP3     4410     TIP3     H2       HT       0.417000       1.00800           0
     21551 TIP3     4411     TIP3     OH2      OT      -0.834000       15.9994           0
     21552 TIP3     4411     TIP3     H1       HT       0.417000       1.00800           0
     21553 TIP3     4411     TIP3     H2       HT       0.417000       1.00800           0
     21554 TIP3     4412     TIP3     OH2      OT      -0.834000       15.9994           0
     21555 TIP3     4412     TIP3     H1       HT       0.417000       1.00800           0
     21556 TIP3     4412     TIP3     H2       HT       0.417000       1.00800           0
     21557 TIP3     4413     TIP3     OH2      OT      -0.834000       15.9994           0
     21558 TIP3     4413     TIP3     H1       HT       0.417000       1.00800           0
     21559 TIP3     4413     TIP3     H2       HT       0.417000       1.00800           0
     21560 TIP3     4414     TIP3     OH2      OT      -0.834000       15.9994           0
     21561 TIP3     4414     TIP3     H1       HT       0.417000       1.00800           0
     21562 TIP3     4414     TIP3     H2       HT       0.417000       1.00800           0
     21563 TIP3     4415     TIP3     OH2      OT      -0.834000       15.9994           0
     21564 TIP3     4415     TIP3     H1       HT       0.417000       1.00800           0
     21565 TIP3     4415     TIP3     H2       HT       0.417000       1.00800           0
     21566 TIP3     4416     TIP3     OH2      OT      -0.834000       15.9994           0
     21567 TIP3     4416     TIP3     H1       HT       0.417000       1.00800           0
     21568 TIP3     4416     TIP3     H2       HT       0.417000       1.00800           0
     21569 TIP3     4417     TIP3     OH2      OT      -0.834000       15.9994           0
     21570 TIP3     4417     TIP3     H1       HT       0.417000       1.00800           0
     21571 TIP3     4417     TIP3     H2       HT       0.417000       1.00800           0
     21572 TIP3     4418     TIP3     OH2      OT      -0.834000       15.9994           0
     21573 TIP3     4418     TIP3     H1       HT       0.417000       1.00800           0
     21574 TIP3     4418     TIP3     H2       HT       0.417000       1.00800           0
     21575 TIP3     4419     TIP3     OH2      OT      -0.834000       15.9994           0
     21576 TIP3     4419     TIP3     H1       HT       0.417000       1.00800           0
     21577 TIP3     4419     TIP3     H2       HT       0.417000       1.00800           0
     21578 TIP3     4420     TIP3     OH2      OT      -0.834000       15.9994           0
     21579 TIP3     4420     TIP3     H1       HT       0.417000       1.00800           0
     21580 TIP3     4420     TIP3     H2       HT       0.417000       1.00800           0
     21581 TIP3     4421     TIP3     OH2      OT      -0.834000       15.9994           0
     21582 TIP3     4421     TIP3     H1       HT       0.417000       1.00800           0
     21583 TIP3     4421     TIP3     H2       HT       0.417000       1.00800           0
     21584 TIP3     4422     TIP3     OH2      OT      -0.834000       15.9994           0
     21585 TIP3     4422     TIP3     H1       HT       0.417000       1.00800           0
     21586 TIP3     4422     TIP3     H2       HT       0.417000       1.00800           0
     21587 TIP3     4423     TIP3     OH2      OT      -0.834000       15.9994           0
     21588 TIP3     4423     TIP3     H1       HT       0.417000       1.00800           0
     21589 TIP3     4423     TIP3     H2       HT       0.417000       1.00800           0
     21590 TIP3     4424     TIP3     OH2      OT      -0.834000       15.9994           0
     21591 TIP3     4424     TIP3     H1       HT       0.417000       1.00800           0
     21592 TIP3     4424     TIP3     H2       HT       0.417000       1.00800           0
     21593 TIP3     4425     TIP3     OH2      OT      -0.834000       15.9994           0
     21594 TIP3     4425     TIP3     H1       HT       0.417000       1.00800           0
     21595 TIP3     4425     TIP3     H2       HT       0.417000       1.00800           0
     21596 TIP3     4426     TIP3     OH2      OT      -0.834000       15.9994           0
     21597 TIP3     4426     TIP3     H1       HT       0.417000       1.00800           0
     21598 TIP3     4426     TIP3     H2       HT       0.417000       1.00800           0
     21599 TIP3     4427     TIP3     OH2      OT      -0.834000       15.9994           0
     21600 TIP3     4427     TIP3     H1       HT       0.417000       1.00800           0
     21601 TIP3     4427     TIP3     H2       HT       0.417000       1.00800           0
     21602 TIP3     4428     TIP3     OH2      OT      -0.834000       15.9994           0
     21603 TIP3     4428     TIP3     H1       HT       0.417000       1.00800           0
     21604 TIP3     4428     TIP3     H2       HT       0.417000       1.00800           0
     21605 TIP3     4429     TIP3     OH2      OT      -0.834000       15.9994           0
     21606 TIP3     4429     TIP3     H1       HT       0.417000       1.00800           0
     21607 TIP3     4429     TIP3     H2       HT       0.417000       1.00800           0
     21608 TIP3     4430     TIP3     OH2      OT      -0.834000       15.9994           0
     21609 TIP3     4430     TIP3     H1       HT       0.417000       1.00800           0
     21610 TIP3     4430     TIP3     H2       HT       0.417000       1.00800           0
     21611 TIP3     4431     TIP3     OH2      OT      -0.834000       15.9994           0
     21612 TIP3     4431     TIP3     H1       HT       0.417000       1.00800           0
     21613 TIP3     4431     TIP3     H2       HT       0.417000       1.00800           0
     21614 TIP3     4432     TIP3     OH2      OT      -0.834000       15.9994           0
     21615 TIP3     4432     TIP3     H1       HT       0.417000       1.00800           0
     21616 TIP3     4432     TIP3     H2       HT       0.417000       1.00800           0
     21617 TIP3     4433     TIP3     OH2      OT      -0.834000       15.9994           0
     21618 TIP3     4433     TIP3     H1       HT       0.417000       1.00800           0
     21619 TIP3     4433     TIP3     H2       HT       0.417000       1.00800           0
     21620 TIP3     4434     TIP3     OH2      OT      -0.834000       15.9994           0
     21621 TIP3     4434     TIP3     H1       HT       0.417000       1.00800           0
     21622 TIP3     4434     TIP3     H2       HT       0.417000       1.00800           0
     21623 TIP3     4435     TIP3     OH2      OT      -0.834000       15.9994           0
     21624 TIP3     4435     TIP3     H1       HT       0.417000       1.00800           0
     21625 TIP3     4435     TIP3     H2       HT       0.417000       1.00800           0
     21626 TIP3     4436     TIP3     OH2      OT      -0.834000       15.9994           0
     21627 TIP3     4436     TIP3     H1       HT       0.417000       1.00800           0
     21628 TIP3     4436     TIP3     H2       HT       0.417000       1.00800           0
     21629 TIP3     4437     TIP3     OH2      OT      -0.834000       15.9994           0
     21630 TIP3     4437     TIP3     H1       HT       0.417000       1.00800           0
     21631 TIP3     4437     TIP3     H2       HT       0.417000       1.00800           0
     21632 TIP3     4438     TIP3     OH2      OT      -0.834000       15.9994           0
     21633 TIP3     4438     TIP3     H1       HT       0.417000       1.00800           0
     21634 TIP3     4438     TIP3     H2       HT       0.417000       1.00800           0
     21635 TIP3     4439     TIP3     OH2      OT      -0.834000       15.9994           0
     21636 TIP3     4439     TIP3     H1       HT       0.417000       1.00800           0
     21637 TIP3     4439     TIP3     H2       HT       0.417000       1.00800           0
     21638 TIP3     4440     TIP3     OH2      OT      -0.834000       15.9994           0
     21639 TIP3     4440     TIP3     H1       HT       0.417000       1.00800           0
     21640 TIP3     4440     TIP3     H2       HT       0.417000       1.00800           0
     21641 TIP3     4441     TIP3     OH2      OT      -0.834000       15.9994           0
     21642 TIP3     4441     TIP3     H1       HT       0.417000       1.00800           0
     21643 TIP3     4441     TIP3     H2       HT       0.417000       1.00800           0
     21644 TIP3     4442     TIP3     OH2      OT      -0.834000       15.9994           0
     21645 TIP3     4442     TIP3     H1       HT       0.417000       1.00800           0
     21646 TIP3     4442     TIP3     H2       HT       0.417000       1.00800           0
     21647 TIP3     4443     TIP3     OH2      OT      -0.834000       15.9994           0
     21648 TIP3     4443     TIP3     H1       HT       0.417000       1.00800           0
     21649 TIP3     4443     TIP3     H2       HT       0.417000       1.00800           0
     21650 TIP3     4444     TIP3     OH2      OT      -0.834000       15.9994           0
     21651 TIP3     4444     TIP3     H1       HT       0.417000       1.00800           0
     21652 TIP3     4444     TIP3     H2       HT       0.417000       1.00800           0
     21653 TIP3     4445     TIP3     OH2      OT      -0.834000       15.9994           0
     21654 TIP3     4445     TIP3     H1       HT       0.417000       1.00800           0
     21655 TIP3     4445     TIP3     H2       HT       0.417000       1.00800           0
     21656 TIP3     4446     TIP3     OH2      OT      -0.834000       15.9994           0
     21657 TIP3     4446     TIP3     H1       HT       0.417000       1.00800           0
     21658 TIP3     4446     TIP3     H2       HT       0.417000       1.00800           0
     21659 TIP3     4447     TIP3     OH2      OT      -0.834000       15.9994           0
     21660 TIP3     4447     TIP3     H1       HT       0.417000       1.00800           0
     21661 TIP3     4447     TIP3     H2       HT       0.417000       1.00800           0
     21662 TIP3     4448     TIP3     OH2      OT      -0.834000       15.9994           0
     21663 TIP3     4448     TIP3     H1       HT       0.417000       1.00800           0
     21664 TIP3     4448     TIP3     H2       HT       0.417000       1.00800           0
     21665 TIP3     4449     TIP3     OH2      OT      -0.834000       15.9994           0
     21666 TIP3     4449     TIP3     H1       HT       0.417000       1.00800           0
     21667 TIP3     4449     TIP3     H2       HT       0.417000       1.00800           0
     21668 TIP3     4450     TIP3     OH2      OT      -0.834000       15.9994           0
     21669 TIP3     4450     TIP3     H1       HT       0.417000       1.00800           0
     21670 TIP3     4450     TIP3     H2       HT       0.417000       1.00800           0
     21671 TIP3     4451     TIP3     OH2      OT      -0.834000       15.9994           0
     21672 TIP3     4451     TIP3     H1       HT       0.417000       1.00800           0
     21673 TIP3     4451     TIP3     H2       HT       0.417000       1.00800           0
     21674 TIP3     4452     TIP3     OH2      OT      -0.834000       15.9994           0
     21675 TIP3     4452     TIP3     H1       HT       0.417000       1.00800           0
     21676 TIP3     4452     TIP3     H2       HT       0.417000       1.00800           0
     21677 TIP3     4453     TIP3     OH2      OT      -0.834000       15.9994           0
     21678 TIP3     4453     TIP3     H1       HT       0.417000       1.00800           0
     21679 TIP3     4453     TIP3     H2       HT       0.417000       1.00800           0
     21680 TIP3     4454     TIP3     OH2      OT      -0.834000       15.9994           0
     21681 TIP3     4454     TIP3     H1       HT       0.417000       1.00800           0
     21682 TIP3     4454     TIP3     H2       HT       0.417000       1.00800           0
     21683 TIP3     4455     TIP3     OH2      OT      -0.834000       15.9994           0
     21684 TIP3     4455     TIP3     H1       HT       0.417000       1.00800           0
     21685 TIP3     4455     TIP3     H2       HT       0.417000       1.00800           0
     21686 TIP3     4456     TIP3     OH2      OT      -0.834000       15.9994           0
     21687 TIP3     4456     TIP3     H1       HT       0.417000       1.00800           0
     21688 TIP3     4456     TIP3     H2       HT       0.417000       1.00800           0
     21689 TIP3     4457     TIP3     OH2      OT      -0.834000       15.9994           0
     21690 TIP3     4457     TIP3     H1       HT       0.417000       1.00800           0
     21691 TIP3     4457     TIP3     H2       HT       0.417000       1.00800           0
     21692 TIP3     4458     TIP3     OH2      OT      -0.834000       15.9994           0
     21693 TIP3     4458     TIP3     H1       HT       0.417000       1.00800           0
     21694 TIP3     4458     TIP3     H2       HT       0.417000       1.00800           0
     21695 TIP3     4459     TIP3     OH2      OT      -0.834000       15.9994           0
     21696 TIP3     4459     TIP3     H1       HT       0.417000       1.00800           0
     21697 TIP3     4459     TIP3     H2       HT       0.417000       1.00800           0
     21698 TIP3     4460     TIP3     OH2      OT      -0.834000       15.9994           0
     21699 TIP3     4460     TIP3     H1       HT       0.417000       1.00800           0
     21700 TIP3     4460     TIP3     H2       HT       0.417000       1.00800           0
     21701 TIP3     4461     TIP3     OH2      OT      -0.834000       15.9994           0
     21702 TIP3     4461     TIP3     H1       HT       0.417000       1.00800           0
     21703 TIP3     4461     TIP3     H2       HT       0.417000       1.00800           0
     21704 TIP3     4462     TIP3     OH2      OT      -0.834000       15.9994           0
     21705 TIP3     4462     TIP3     H1       HT       0.417000       1.00800           0
     21706 TIP3     4462     TIP3     H2       HT       0.417000       1.00800           0
     21707 TIP3     4463     TIP3     OH2      OT      -0.834000       15.9994           0
     21708 TIP3     4463     TIP3     H1       HT       0.417000       1.00800           0
     21709 TIP3     4463     TIP3     H2       HT       0.417000       1.00800           0
     21710 TIP3     4464     TIP3     OH2      OT      -0.834000       15.9994           0
     21711 TIP3     4464     TIP3     H1       HT       0.417000       1.00800           0
     21712 TIP3     4464     TIP3     H2       HT       0.417000       1.00800           0
     21713 TIP3     4465     TIP3     OH2      OT      -0.834000       15.9994           0
     21714 TIP3     4465     TIP3     H1       HT       0.417000       1.00800           0
     21715 TIP3     4465     TIP3     H2       HT       0.417000       1.00800           0
     21716 TIP3     4466     TIP3     OH2      OT      -0.834000       15.9994           0
     21717 TIP3     4466     TIP3     H1       HT       0.417000       1.00800           0
     21718 TIP3     4466     TIP3     H2       HT       0.417000       1.00800           0
     21719 TIP3     4467     TIP3     OH2      OT      -0.834000       15.9994           0
     21720 TIP3     4467     TIP3     H1       HT       0.417000       1.00800           0
     21721 TIP3     4467     TIP3     H2       HT       0.417000       1.00800           0
     21722 TIP3     4468     TIP3     OH2      OT      -0.834000       15.9994           0
     21723 TIP3     4468     TIP3     H1       HT       0.417000       1.00800           0
     21724 TIP3     4468     TIP3     H2       HT       0.417000       1.00800           0
     21725 TIP3     4469     TIP3     OH2      OT      -0.834000       15.9994           0
     21726 TIP3     4469     TIP3     H1       HT       0.417000       1.00800           0
     21727 TIP3     4469     TIP3     H2       HT       0.417000       1.00800           0
     21728 TIP3     4470     TIP3     OH2      OT      -0.834000       15.9994           0
     21729 TIP3     4470     TIP3     H1       HT       0.417000       1.00800           0
     21730 TIP3     4470     TIP3     H2       HT       0.417000       1.00800           0
     21731 TIP3     4471     TIP3     OH2      OT      -0.834000       15.9994           0
     21732 TIP3     4471     TIP3     H1       HT       0.417000       1.00800           0
     21733 TIP3     4471     TIP3     H2       HT       0.417000       1.00800           0
     21734 TIP3     4472     TIP3     OH2      OT      -0.834000       15.9994           0
     21735 TIP3     4472     TIP3     H1       HT       0.417000       1.00800           0
     21736 TIP3     4472     TIP3     H2       HT       0.417000       1.00800           0
     21737 TIP3     4473     TIP3     OH2      OT      -0.834000       15.9994           0
     21738 TIP3     4473     TIP3     H1       HT       0.417000       1.00800           0
     21739 TIP3     4473     TIP3     H2       HT       0.417000       1.00800           0
     21740 TIP3     4474     TIP3     OH2      OT      -0.834000       15.9994           0
     21741 TIP3     4474     TIP3     H1       HT       0.417000       1.00800           0
     21742 TIP3     4474     TIP3     H2       HT       0.417000       1.00800           0
     21743 TIP3     4475     TIP3     OH2      OT      -0.834000       15.9994           0
     21744 TIP3     4475     TIP3     H1       HT       0.417000       1.00800           0
     21745 TIP3     4475     TIP3     H2       HT       0.417000       1.00800           0
     21746 TIP3     4476     TIP3     OH2      OT      -0.834000       15.9994           0
     21747 TIP3     4476     TIP3     H1       HT       0.417000       1.00800           0
     21748 TIP3     4476     TIP3     H2       HT       0.417000       1.00800           0
     21749 TIP3     4477     TIP3     OH2      OT      -0.834000       15.9994           0
     21750 TIP3     4477     TIP3     H1       HT       0.417000       1.00800           0
     21751 TIP3     4477     TIP3     H2       HT       0.417000       1.00800           0
     21752 TIP3     4478     TIP3     OH2      OT      -0.834000       15.9994           0
     21753 TIP3     4478     TIP3     H1       HT       0.417000       1.00800           0
     21754 TIP3     4478     TIP3     H2       HT       0.417000       1.00800           0
     21755 TIP3     4479     TIP3     OH2      OT      -0.834000       15.9994           0
     21756 TIP3     4479     TIP3     H1       HT       0.417000       1.00800           0
     21757 TIP3     4479     TIP3     H2       HT       0.417000       1.00800           0
     21758 TIP3     4480     TIP3     OH2      OT      -0.834000       15.9994           0
     21759 TIP3     4480     TIP3     H1       HT       0.417000       1.00800           0
     21760 TIP3     4480     TIP3     H2       HT       0.417000       1.00800           0
     21761 TIP3     4481     TIP3     OH2      OT      -0.834000       15.9994           0
     21762 TIP3     4481     TIP3     H1       HT       0.417000       1.00800           0
     21763 TIP3     4481     TIP3     H2       HT       0.417000       1.00800           0
     21764 TIP3     4482     TIP3     OH2      OT      -0.834000       15.9994           0
     21765 TIP3     4482     TIP3     H1       HT       0.417000       1.00800           0
     21766 TIP3     4482     TIP3     H2       HT       0.417000       1.00800           0
     21767 TIP3     4483     TIP3     OH2      OT      -0.834000       15.9994           0
     21768 TIP3     4483     TIP3     H1       HT       0.417000       1.00800           0
     21769 TIP3     4483     TIP3     H2       HT       0.417000       1.00800           0
     21770 TIP3     4484     TIP3     OH2      OT      -0.834000       15.9994           0
     21771 TIP3     4484     TIP3     H1       HT       0.417000       1.00800           0
     21772 TIP3     4484     TIP3     H2       HT       0.417000       1.00800           0
     21773 TIP3     4485     TIP3     OH2      OT      -0.834000       15.9994           0
     21774 TIP3     4485     TIP3     H1       HT       0.417000       1.00800           0
     21775 TIP3     4485     TIP3     H2       HT       0.417000       1.00800           0
     21776 TIP3     4486     TIP3     OH2      OT      -0.834000       15.9994           0
     21777 TIP3     4486     TIP3     H1       HT       0.417000       1.00800           0
     21778 TIP3     4486     TIP3     H2       HT       0.417000       1.00800           0
     21779 TIP3     4487     TIP3     OH2      OT      -0.834000       15.9994           0
     21780 TIP3     4487     TIP3     H1       HT       0.417000       1.00800           0
     21781 TIP3     4487     TIP3     H2       HT       0.417000       1.00800           0
     21782 TIP3     4488     TIP3     OH2      OT      -0.834000       15.9994           0
     21783 TIP3     4488     TIP3     H1       HT       0.417000       1.00800           0
     21784 TIP3     4488     TIP3     H2       HT       0.417000       1.00800           0
     21785 TIP3     4489     TIP3     OH2      OT      -0.834000       15.9994           0
     21786 TIP3     4489     TIP3     H1       HT       0.417000       1.00800           0
     21787 TIP3     4489     TIP3     H2       HT       0.417000       1.00800           0
     21788 TIP3     4490     TIP3     OH2      OT      -0.834000       15.9994           0
     21789 TIP3     4490     TIP3     H1       HT       0.417000       1.00800           0
     21790 TIP3     4490     TIP3     H2       HT       0.417000       1.00800           0
     21791 TIP3     4491     TIP3     OH2      OT      -0.834000       15.9994           0
     21792 TIP3     4491     TIP3     H1       HT       0.417000       1.00800           0
     21793 TIP3     4491     TIP3     H2       HT       0.417000       1.00800           0
     21794 TIP3     4492     TIP3     OH2      OT      -0.834000       15.9994           0
     21795 TIP3     4492     TIP3     H1       HT       0.417000       1.00800           0
     21796 TIP3     4492     TIP3     H2       HT       0.417000       1.00800           0
     21797 TIP3     4493     TIP3     OH2      OT      -0.834000       15.9994           0
     21798 TIP3     4493     TIP3     H1       HT       0.417000       1.00800           0
     21799 TIP3     4493     TIP3     H2       HT       0.417000       1.00800           0
     21800 TIP3     4494     TIP3     OH2      OT      -0.834000       15.9994           0
     21801 TIP3     4494     TIP3     H1       HT       0.417000       1.00800           0
     21802 TIP3     4494     TIP3     H2       HT       0.417000       1.00800           0
     21803 TIP3     4495     TIP3     OH2      OT      -0.834000       15.9994           0
     21804 TIP3     4495     TIP3     H1       HT       0.417000       1.00800           0
     21805 TIP3     4495     TIP3     H2       HT       0.417000       1.00800           0
     21806 TIP3     4496     TIP3     OH2      OT      -0.834000       15.9994           0
     21807 TIP3     4496     TIP3     H1       HT       0.417000       1.00800           0
     21808 TIP3     4496     TIP3     H2       HT       0.417000       1.00800           0
     21809 TIP3     4497     TIP3     OH2      OT      -0.834000       15.9994           0
     21810 TIP3     4497     TIP3     H1       HT       0.417000       1.00800           0
     21811 TIP3     4497     TIP3     H2       HT       0.417000       1.00800           0
     21812 TIP3     4498     TIP3     OH2      OT      -0.834000       15.9994           0
     21813 TIP3     4498     TIP3     H1       HT       0.417000       1.00800           0
     21814 TIP3     4498     TIP3     H2       HT       0.417000       1.00800           0
     21815 TIP3     4499     TIP3     OH2      OT      -0.834000       15.9994           0
     21816 TIP3     4499     TIP3     H1       HT       0.417000       1.00800           0
     21817 TIP3     4499     TIP3     H2       HT       0.417000       1.00800           0
     21818 TIP3     4500     TIP3     OH2      OT      -0.834000       15.9994           0
     21819 TIP3     4500     TIP3     H1       HT       0.417000       1.00800           0
     21820 TIP3     4500     TIP3     H2       HT       0.417000       1.00800           0
     21821 TIP3     4501     TIP3     OH2      OT      -0.834000       15.9994           0
     21822 TIP3     4501     TIP3     H1       HT       0.417000       1.00800           0
     21823 TIP3     4501     TIP3     H2       HT       0.417000       1.00800           0
     21824 TIP3     4502     TIP3     OH2      OT      -0.834000       15.9994           0
     21825 TIP3     4502     TIP3     H1       HT       0.417000       1.00800           0
     21826 TIP3     4502     TIP3     H2       HT       0.417000       1.00800           0
     21827 TIP3     4503     TIP3     OH2      OT      -0.834000       15.9994           0
     21828 TIP3     4503     TIP3     H1       HT       0.417000       1.00800           0
     21829 TIP3     4503     TIP3     H2       HT       0.417000       1.00800           0
     21830 TIP3     4504     TIP3     OH2      OT      -0.834000       15.9994           0
     21831 TIP3     4504     TIP3     H1       HT       0.417000       1.00800           0
     21832 TIP3     4504     TIP3     H2       HT       0.417000       1.00800           0
     21833 TIP3     4505     TIP3     OH2      OT      -0.834000       15.9994           0
     21834 TIP3     4505     TIP3     H1       HT       0.417000       1.00800           0
     21835 TIP3     4505     TIP3     H2       HT       0.417000       1.00800           0
     21836 TIP3     4506     TIP3     OH2      OT      -0.834000       15.9994           0
     21837 TIP3     4506     TIP3     H1       HT       0.417000       1.00800           0
     21838 TIP3     4506     TIP3     H2       HT       0.417000       1.00800           0
     21839 TIP3     4507     TIP3     OH2      OT      -0.834000       15.9994           0
     21840 TIP3     4507     TIP3     H1       HT       0.417000       1.00800           0
     21841 TIP3     4507     TIP3     H2       HT       0.417000       1.00800           0
     21842 TIP3     4508     TIP3     OH2      OT      -0.834000       15.9994           0
     21843 TIP3     4508     TIP3     H1       HT       0.417000       1.00800           0
     21844 TIP3     4508     TIP3     H2       HT       0.417000       1.00800           0
     21845 TIP3     4509     TIP3     OH2      OT      -0.834000       15.9994           0
     21846 TIP3     4509     TIP3     H1       HT       0.417000       1.00800           0
     21847 TIP3     4509     TIP3     H2       HT       0.417000       1.00800           0
     21848 TIP3     4510     TIP3     OH2      OT      -0.834000       15.9994           0
     21849 TIP3     4510     TIP3     H1       HT       0.417000       1.00800           0
     21850 TIP3     4510     TIP3     H2       HT       0.417000       1.00800           0
     21851 TIP3     4511     TIP3     OH2      OT      -0.834000       15.9994           0
     21852 TIP3     4511     TIP3     H1       HT       0.417000       1.00800           0
     21853 TIP3     4511     TIP3     H2       HT       0.417000       1.00800           0
     21854 TIP3     4512     TIP3     OH2      OT      -0.834000       15.9994           0
     21855 TIP3     4512     TIP3     H1       HT       0.417000       1.00800           0
     21856 TIP3     4512     TIP3     H2       HT       0.417000       1.00800           0
     21857 TIP3     4513     TIP3     OH2      OT      -0.834000       15.9994           0
     21858 TIP3     4513     TIP3     H1       HT       0.417000       1.00800           0
     21859 TIP3     4513     TIP3     H2       HT       0.417000       1.00800           0
     21860 TIP3     4514     TIP3     OH2      OT      -0.834000       15.9994           0
     21861 TIP3     4514     TIP3     H1       HT       0.417000       1.00800           0
     21862 TIP3     4514     TIP3     H2       HT       0.417000       1.00800           0
     21863 TIP3     4515     TIP3     OH2      OT      -0.834000       15.9994           0
     21864 TIP3     4515     TIP3     H1       HT       0.417000       1.00800           0
     21865 TIP3     4515     TIP3     H2       HT       0.417000       1.00800           0
     21866 TIP3     4516     TIP3     OH2      OT      -0.834000       15.9994           0
     21867 TIP3     4516     TIP3     H1       HT       0.417000       1.00800           0
     21868 TIP3     4516     TIP3     H2       HT       0.417000       1.00800           0
     21869 TIP3     4517     TIP3     OH2      OT      -0.834000       15.9994           0
     21870 TIP3     4517     TIP3     H1       HT       0.417000       1.00800           0
     21871 TIP3     4517     TIP3     H2       HT       0.417000       1.00800           0
     21872 TIP3     4518     TIP3     OH2      OT      -0.834000       15.9994           0
     21873 TIP3     4518     TIP3     H1       HT       0.417000       1.00800           0
     21874 TIP3     4518     TIP3     H2       HT       0.417000       1.00800           0
     21875 TIP3     4519     TIP3     OH2      OT      -0.834000       15.9994           0
     21876 TIP3     4519     TIP3     H1       HT       0.417000       1.00800           0
     21877 TIP3     4519     TIP3     H2       HT       0.417000       1.00800           0
     21878 TIP3     4520     TIP3     OH2      OT      -0.834000       15.9994           0
     21879 TIP3     4520     TIP3     H1       HT       0.417000       1.00800           0
     21880 TIP3     4520     TIP3     H2       HT       0.417000       1.00800           0
     21881 TIP3     4521     TIP3     OH2      OT      -0.834000       15.9994           0
     21882 TIP3     4521     TIP3     H1       HT       0.417000       1.00800           0
     21883 TIP3     4521     TIP3     H2       HT       0.417000       1.00800           0
     21884 TIP3     4522     TIP3     OH2      OT      -0.834000       15.9994           0
     21885 TIP3     4522     TIP3     H1       HT       0.417000       1.00800           0
     21886 TIP3     4522     TIP3     H2       HT       0.417000       1.00800           0
     21887 TIP3     4523     TIP3     OH2      OT      -0.834000       15.9994           0
     21888 TIP3     4523     TIP3     H1       HT       0.417000       1.00800           0
     21889 TIP3     4523     TIP3     H2       HT       0.417000       1.00800           0
     21890 TIP3     4524     TIP3     OH2      OT      -0.834000       15.9994           0
     21891 TIP3     4524     TIP3     H1       HT       0.417000       1.00800           0
     21892 TIP3     4524     TIP3     H2       HT       0.417000       1.00800           0
     21893 TIP3     4525     TIP3     OH2      OT      -0.834000       15.9994           0
     21894 TIP3     4525     TIP3     H1       HT       0.417000       1.00800           0
     21895 TIP3     4525     TIP3     H2       HT       0.417000       1.00800           0
     21896 TIP3     4526     TIP3     OH2      OT      -0.834000       15.9994           0
     21897 TIP3     4526     TIP3     H1       HT       0.417000       1.00800           0
     21898 TIP3     4526     TIP3     H2       HT       0.417000       1.00800           0
     21899 TIP3     4527     TIP3     OH2      OT      -0.834000       15.9994           0
     21900 TIP3     4527     TIP3     H1       HT       0.417000       1.00800           0
     21901 TIP3     4527     TIP3     H2       HT       0.417000       1.00800           0
     21902 TIP3     4528     TIP3     OH2      OT      -0.834000       15.9994           0
     21903 TIP3     4528     TIP3     H1       HT       0.417000       1.00800           0
     21904 TIP3     4528     TIP3     H2       HT       0.417000       1.00800           0
     21905 TIP3     4529     TIP3     OH2      OT      -0.834000       15.9994           0
     21906 TIP3     4529     TIP3     H1       HT       0.417000       1.00800           0
     21907 TIP3     4529     TIP3     H2       HT       0.417000       1.00800           0
     21908 TIP3     4530     TIP3     OH2      OT      -0.834000       15.9994           0
     21909 TIP3     4530     TIP3     H1       HT       0.417000       1.00800           0
     21910 TIP3     4530     TIP3     H2       HT       0.417000       1.00800           0
     21911 TIP3     4531     TIP3     OH2      OT      -0.834000       15.9994           0
     21912 TIP3     4531     TIP3     H1       HT       0.417000       1.00800           0
     21913 TIP3     4531     TIP3     H2       HT       0.417000       1.00800           0
     21914 TIP3     4532     TIP3     OH2      OT      -0.834000       15.9994           0
     21915 TIP3     4532     TIP3     H1       HT       0.417000       1.00800           0
     21916 TIP3     4532     TIP3     H2       HT       0.417000       1.00800           0
     21917 TIP3     4533     TIP3     OH2      OT      -0.834000       15.9994           0
     21918 TIP3     4533     TIP3     H1       HT       0.417000       1.00800           0
     21919 TIP3     4533     TIP3     H2       HT       0.417000       1.00800           0
     21920 TIP3     4534     TIP3     OH2      OT      -0.834000       15.9994           0
     21921 TIP3     4534     TIP3     H1       HT       0.417000       1.00800           0
     21922 TIP3     4534     TIP3     H2       HT       0.417000       1.00800           0
     21923 TIP3     4535     TIP3     OH2      OT      -0.834000       15.9994           0
     21924 TIP3     4535     TIP3     H1       HT       0.417000       1.00800           0
     21925 TIP3     4535     TIP3     H2       HT       0.417000       1.00800           0
     21926 TIP3     4536     TIP3     OH2      OT      -0.834000       15.9994           0
     21927 TIP3     4536     TIP3     H1       HT       0.417000       1.00800           0
     21928 TIP3     4536     TIP3     H2       HT       0.417000       1.00800           0
     21929 TIP3     4537     TIP3     OH2      OT      -0.834000       15.9994           0
     21930 TIP3     4537     TIP3     H1       HT       0.417000       1.00800           0
     21931 TIP3     4537     TIP3     H2       HT       0.417000       1.00800           0
     21932 TIP3     4538     TIP3     OH2      OT      -0.834000       15.9994           0
     21933 TIP3     4538     TIP3     H1       HT       0.417000       1.00800           0
     21934 TIP3     4538     TIP3     H2       HT       0.417000       1.00800           0
     21935 TIP3     4539     TIP3     OH2      OT      -0.834000       15.9994           0
     21936 TIP3     4539     TIP3     H1       HT       0.417000       1.00800           0
     21937 TIP3     4539     TIP3     H2       HT       0.417000       1.00800           0
     21938 TIP3     4540     TIP3     OH2      OT      -0.834000       15.9994           0
     21939 TIP3     4540     TIP3     H1       HT       0.417000       1.00800           0
     21940 TIP3     4540     TIP3     H2       HT       0.417000       1.00800           0
     21941 TIP3     4541     TIP3     OH2      OT      -0.834000       15.9994           0
     21942 TIP3     4541     TIP3     H1       HT       0.417000       1.00800           0
     21943 TIP3     4541     TIP3     H2       HT       0.417000       1.00800           0
     21944 TIP3     4542     TIP3     OH2      OT      -0.834000       15.9994           0
     21945 TIP3     4542     TIP3     H1       HT       0.417000       1.00800           0
     21946 TIP3     4542     TIP3     H2       HT       0.417000       1.00800           0
     21947 TIP3     4543     TIP3     OH2      OT      -0.834000       15.9994           0
     21948 TIP3     4543     TIP3     H1       HT       0.417000       1.00800           0
     21949 TIP3     4543     TIP3     H2       HT       0.417000       1.00800           0
     21950 TIP3     4544     TIP3     OH2      OT      -0.834000       15.9994           0
     21951 TIP3     4544     TIP3     H1       HT       0.417000       1.00800           0
     21952 TIP3     4544     TIP3     H2       HT       0.417000       1.00800           0
     21953 TIP3     4545     TIP3     OH2      OT      -0.834000       15.9994           0
     21954 TIP3     4545     TIP3     H1       HT       0.417000       1.00800           0
     21955 TIP3     4545     TIP3     H2       HT       0.417000       1.00800           0
     21956 TIP3     4546     TIP3     OH2      OT      -0.834000       15.9994           0
     21957 TIP3     4546     TIP3     H1       HT       0.417000       1.00800           0
     21958 TIP3     4546     TIP3     H2       HT       0.417000       1.00800           0
     21959 TIP3     4547     TIP3     OH2      OT      -0.834000       15.9994           0
     21960 TIP3     4547     TIP3     H1       HT       0.417000       1.00800           0
     21961 TIP3     4547     TIP3     H2       HT       0.417000       1.00800           0
     21962 TIP3     4548     TIP3     OH2      OT      -0.834000       15.9994           0
     21963 TIP3     4548     TIP3     H1       HT       0.417000       1.00800           0
     21964 TIP3     4548     TIP3     H2       HT       0.417000       1.00800           0
     21965 TIP3     4549     TIP3     OH2      OT      -0.834000       15.9994           0
     21966 TIP3     4549     TIP3     H1       HT       0.417000       1.00800           0
     21967 TIP3     4549     TIP3     H2       HT       0.417000       1.00800           0
     21968 TIP3     4550     TIP3     OH2      OT      -0.834000       15.9994           0
     21969 TIP3     4550     TIP3     H1       HT       0.417000       1.00800           0
     21970 TIP3     4550     TIP3     H2       HT       0.417000       1.00800           0
     21971 TIP3     4551     TIP3     OH2      OT      -0.834000       15.9994           0
     21972 TIP3     4551     TIP3     H1       HT       0.417000       1.00800           0
     21973 TIP3     4551     TIP3     H2       HT       0.417000       1.00800           0
     21974 TIP3     4552     TIP3     OH2      OT      -0.834000       15.9994           0
     21975 TIP3     4552     TIP3     H1       HT       0.417000       1.00800           0
     21976 TIP3     4552     TIP3     H2       HT       0.417000       1.00800           0
     21977 TIP3     4553     TIP3     OH2      OT      -0.834000       15.9994           0
     21978 TIP3     4553     TIP3     H1       HT       0.417000       1.00800           0
     21979 TIP3     4553     TIP3     H2       HT       0.417000       1.00800           0
     21980 TIP3     4554     TIP3     OH2      OT      -0.834000       15.9994           0
     21981 TIP3     4554     TIP3     H1       HT       0.417000       1.00800           0
     21982 TIP3     4554     TIP3     H2       HT       0.417000       1.00800           0
     21983 TIP3     4555     TIP3     OH2      OT      -0.834000       15.9994           0
     21984 TIP3     4555     TIP3     H1       HT       0.417000       1.00800           0
     21985 TIP3     4555     TIP3     H2       HT       0.417000       1.00800           0
     21986 TIP3     4556     TIP3     OH2      OT      -0.834000       15.9994           0
     21987 TIP3     4556     TIP3     H1       HT       0.417000       1.00800           0
     21988 TIP3     4556     TIP3     H2       HT       0.417000       1.00800           0
     21989 TIP3     4557     TIP3     OH2      OT      -0.834000       15.9994           0
     21990 TIP3     4557     TIP3     H1       HT       0.417000       1.00800           0
     21991 TIP3     4557     TIP3     H2       HT       0.417000       1.00800           0
     21992 TIP3     4558     TIP3     OH2      OT      -0.834000       15.9994           0
     21993 TIP3     4558     TIP3     H1       HT       0.417000       1.00800           0
     21994 TIP3     4558     TIP3     H2       HT       0.417000       1.00800           0
     21995 TIP3     4559     TIP3     OH2      OT      -0.834000       15.9994           0
     21996 TIP3     4559     TIP3     H1       HT       0.417000       1.00800           0
     21997 TIP3     4559     TIP3     H2       HT       0.417000       1.00800           0
     21998 TIP3     4560     TIP3     OH2      OT      -0.834000       15.9994           0
     21999 TIP3     4560     TIP3     H1       HT       0.417000       1.00800           0
     22000 TIP3     4560     TIP3     H2       HT       0.417000       1.00800           0
     22001 TIP3     4561     TIP3     OH2      OT      -0.834000       15.9994           0
     22002 TIP3     4561     TIP3     H1       HT       0.417000       1.00800           0
     22003 TIP3     4561     TIP3     H2       HT       0.417000       1.00800           0
     22004 TIP3     4562     TIP3     OH2      OT      -0.834000       15.9994           0
     22005 TIP3     4562     TIP3     H1       HT       0.417000       1.00800           0
     22006 TIP3     4562     TIP3     H2       HT       0.417000       1.00800           0
     22007 TIP3     4563     TIP3     OH2      OT      -0.834000       15.9994           0
     22008 TIP3     4563     TIP3     H1       HT       0.417000       1.00800           0
     22009 TIP3     4563     TIP3     H2       HT       0.417000       1.00800           0
     22010 TIP3     4564     TIP3     OH2      OT      -0.834000       15.9994           0
     22011 TIP3     4564     TIP3     H1       HT       0.417000       1.00800           0
     22012 TIP3     4564     TIP3     H2       HT       0.417000       1.00800           0
     22013 TIP3     4565     TIP3     OH2      OT      -0.834000       15.9994           0
     22014 TIP3     4565     TIP3     H1       HT       0.417000       1.00800           0
     22015 TIP3     4565     TIP3     H2       HT       0.417000       1.00800           0
     22016 TIP3     4566     TIP3     OH2      OT      -0.834000       15.9994           0
     22017 TIP3     4566     TIP3     H1       HT       0.417000       1.00800           0
     22018 TIP3     4566     TIP3     H2       HT       0.417000       1.00800           0
     22019 TIP3     4567     TIP3     OH2      OT      -0.834000       15.9994           0
     22020 TIP3     4567     TIP3     H1       HT       0.417000       1.00800           0
     22021 TIP3     4567     TIP3     H2       HT       0.417000       1.00800           0
     22022 TIP3     4568     TIP3     OH2      OT      -0.834000       15.9994           0
     22023 TIP3     4568     TIP3     H1       HT       0.417000       1.00800           0
     22024 TIP3     4568     TIP3     H2       HT       0.417000       1.00800           0
     22025 TIP3     4569     TIP3     OH2      OT      -0.834000       15.9994           0
     22026 TIP3     4569     TIP3     H1       HT       0.417000       1.00800           0
     22027 TIP3     4569     TIP3     H2       HT       0.417000       1.00800           0
     22028 TIP3     4570     TIP3     OH2      OT      -0.834000       15.9994           0
     22029 TIP3     4570     TIP3     H1       HT       0.417000       1.00800           0
     22030 TIP3     4570     TIP3     H2       HT       0.417000       1.00800           0
     22031 TIP3     4571     TIP3     OH2      OT      -0.834000       15.9994           0
     22032 TIP3     4571     TIP3     H1       HT       0.417000       1.00800           0
     22033 TIP3     4571     TIP3     H2       HT       0.417000       1.00800           0
     22034 TIP3     4572     TIP3     OH2      OT      -0.834000       15.9994           0
     22035 TIP3     4572     TIP3     H1       HT       0.417000       1.00800           0
     22036 TIP3     4572     TIP3     H2       HT       0.417000       1.00800           0
     22037 TIP3     4573     TIP3     OH2      OT      -0.834000       15.9994           0
     22038 TIP3     4573     TIP3     H1       HT       0.417000       1.00800           0
     22039 TIP3     4573     TIP3     H2       HT       0.417000       1.00800           0
     22040 TIP3     4574     TIP3     OH2      OT      -0.834000       15.9994           0
     22041 TIP3     4574     TIP3     H1       HT       0.417000       1.00800           0
     22042 TIP3     4574     TIP3     H2       HT       0.417000       1.00800           0
     22043 TIP3     4575     TIP3     OH2      OT      -0.834000       15.9994           0
     22044 TIP3     4575     TIP3     H1       HT       0.417000       1.00800           0
     22045 TIP3     4575     TIP3     H2       HT       0.417000       1.00800           0
     22046 TIP3     4576     TIP3     OH2      OT      -0.834000       15.9994           0
     22047 TIP3     4576     TIP3     H1       HT       0.417000       1.00800           0
     22048 TIP3     4576     TIP3     H2       HT       0.417000       1.00800           0
     22049 TIP3     4577     TIP3     OH2      OT      -0.834000       15.9994           0
     22050 TIP3     4577     TIP3     H1       HT       0.417000       1.00800           0
     22051 TIP3     4577     TIP3     H2       HT       0.417000       1.00800           0
     22052 TIP3     4578     TIP3     OH2      OT      -0.834000       15.9994           0
     22053 TIP3     4578     TIP3     H1       HT       0.417000       1.00800           0
     22054 TIP3     4578     TIP3     H2       HT       0.417000       1.00800           0
     22055 TIP3     4579     TIP3     OH2      OT      -0.834000       15.9994           0
     22056 TIP3     4579     TIP3     H1       HT       0.417000       1.00800           0
     22057 TIP3     4579     TIP3     H2       HT       0.417000       1.00800           0
     22058 TIP3     4580     TIP3     OH2      OT      -0.834000       15.9994           0
     22059 TIP3     4580     TIP3     H1       HT       0.417000       1.00800           0
     22060 TIP3     4580     TIP3     H2       HT       0.417000       1.00800           0
     22061 TIP3     4581     TIP3     OH2      OT      -0.834000       15.9994           0
     22062 TIP3     4581     TIP3     H1       HT       0.417000       1.00800           0
     22063 TIP3     4581     TIP3     H2       HT       0.417000       1.00800           0
     22064 TIP3     4582     TIP3     OH2      OT      -0.834000       15.9994           0
     22065 TIP3     4582     TIP3     H1       HT       0.417000       1.00800           0
     22066 TIP3     4582     TIP3     H2       HT       0.417000       1.00800           0
     22067 TIP3     4583     TIP3     OH2      OT      -0.834000       15.9994           0
     22068 TIP3     4583     TIP3     H1       HT       0.417000       1.00800           0
     22069 TIP3     4583     TIP3     H2       HT       0.417000       1.00800           0
     22070 TIP3     4584     TIP3     OH2      OT      -0.834000       15.9994           0
     22071 TIP3     4584     TIP3     H1       HT       0.417000       1.00800           0
     22072 TIP3     4584     TIP3     H2       HT       0.417000       1.00800           0
     22073 TIP3     4585     TIP3     OH2      OT      -0.834000       15.9994           0
     22074 TIP3     4585     TIP3     H1       HT       0.417000       1.00800           0
     22075 TIP3     4585     TIP3     H2       HT       0.417000       1.00800           0
     22076 TIP3     4586     TIP3     OH2      OT      -0.834000       15.9994           0
     22077 TIP3     4586     TIP3     H1       HT       0.417000       1.00800           0
     22078 TIP3     4586     TIP3     H2       HT       0.417000       1.00800           0
     22079 TIP3     4587     TIP3     OH2      OT      -0.834000       15.9994           0
     22080 TIP3     4587     TIP3     H1       HT       0.417000       1.00800           0
     22081 TIP3     4587     TIP3     H2       HT       0.417000       1.00800           0
     22082 TIP3     4588     TIP3     OH2      OT      -0.834000       15.9994           0
     22083 TIP3     4588     TIP3     H1       HT       0.417000       1.00800           0
     22084 TIP3     4588     TIP3     H2       HT       0.417000       1.00800           0
     22085 TIP3     4589     TIP3     OH2      OT      -0.834000       15.9994           0
     22086 TIP3     4589     TIP3     H1       HT       0.417000       1.00800           0
     22087 TIP3     4589     TIP3     H2       HT       0.417000       1.00800           0
     22088 TIP3     4590     TIP3     OH2      OT      -0.834000       15.9994           0
     22089 TIP3     4590     TIP3     H1       HT       0.417000       1.00800           0
     22090 TIP3     4590     TIP3     H2       HT       0.417000       1.00800           0
     22091 TIP3     4591     TIP3     OH2      OT      -0.834000       15.9994           0
     22092 TIP3     4591     TIP3     H1       HT       0.417000       1.00800           0
     22093 TIP3     4591     TIP3     H2       HT       0.417000       1.00800           0
     22094 TIP3     4592     TIP3     OH2      OT      -0.834000       15.9994           0
     22095 TIP3     4592     TIP3     H1       HT       0.417000       1.00800           0
     22096 TIP3     4592     TIP3     H2       HT       0.417000       1.00800           0
     22097 TIP3     4593     TIP3     OH2      OT      -0.834000       15.9994           0
     22098 TIP3     4593     TIP3     H1       HT       0.417000       1.00800           0
     22099 TIP3     4593     TIP3     H2       HT       0.417000       1.00800           0
     22100 TIP3     4594     TIP3     OH2      OT      -0.834000       15.9994           0
     22101 TIP3     4594     TIP3     H1       HT       0.417000       1.00800           0
     22102 TIP3     4594     TIP3     H2       HT       0.417000       1.00800           0
     22103 TIP3     4595     TIP3     OH2      OT      -0.834000       15.9994           0
     22104 TIP3     4595     TIP3     H1       HT       0.417000       1.00800           0
     22105 TIP3     4595     TIP3     H2       HT       0.417000       1.00800           0
     22106 TIP3     4596     TIP3     OH2      OT      -0.834000       15.9994           0
     22107 TIP3     4596     TIP3     H1       HT       0.417000       1.00800           0
     22108 TIP3     4596     TIP3     H2       HT       0.417000       1.00800           0
     22109 TIP3     4597     TIP3     OH2      OT      -0.834000       15.9994           0
     22110 TIP3     4597     TIP3     H1       HT       0.417000       1.00800           0
     22111 TIP3     4597     TIP3     H2       HT       0.417000       1.00800           0
     22112 TIP3     4598     TIP3     OH2      OT      -0.834000       15.9994           0
     22113 TIP3     4598     TIP3     H1       HT       0.417000       1.00800           0
     22114 TIP3     4598     TIP3     H2       HT       0.417000       1.00800           0
     22115 TIP3     4599     TIP3     OH2      OT      -0.834000       15.9994           0
     22116 TIP3     4599     TIP3     H1       HT       0.417000       1.00800           0
     22117 TIP3     4599     TIP3     H2       HT       0.417000       1.00800           0
     22118 TIP3     4600     TIP3     OH2      OT      -0.834000       15.9994           0
     22119 TIP3     4600     TIP3     H1       HT       0.417000       1.00800           0
     22120 TIP3     4600     TIP3     H2       HT       0.417000       1.00800           0
     22121 TIP3     4601     TIP3     OH2      OT      -0.834000       15.9994           0
     22122 TIP3     4601     TIP3     H1       HT       0.417000       1.00800           0
     22123 TIP3     4601     TIP3     H2       HT       0.417000       1.00800           0
     22124 TIP3     4602     TIP3     OH2      OT      -0.834000       15.9994           0
     22125 TIP3     4602     TIP3     H1       HT       0.417000       1.00800           0
     22126 TIP3     4602     TIP3     H2       HT       0.417000       1.00800           0
     22127 TIP3     4603     TIP3     OH2      OT      -0.834000       15.9994           0
     22128 TIP3     4603     TIP3     H1       HT       0.417000       1.00800           0
     22129 TIP3     4603     TIP3     H2       HT       0.417000       1.00800           0
     22130 TIP3     4604     TIP3     OH2      OT      -0.834000       15.9994           0
     22131 TIP3     4604     TIP3     H1       HT       0.417000       1.00800           0
     22132 TIP3     4604     TIP3     H2       HT       0.417000       1.00800           0
     22133 TIP3     4605     TIP3     OH2      OT      -0.834000       15.9994           0
     22134 TIP3     4605     TIP3     H1       HT       0.417000       1.00800           0
     22135 TIP3     4605     TIP3     H2       HT       0.417000       1.00800           0
     22136 TIP3     4606     TIP3     OH2      OT      -0.834000       15.9994           0
     22137 TIP3     4606     TIP3     H1       HT       0.417000       1.00800           0
     22138 TIP3     4606     TIP3     H2       HT       0.417000       1.00800           0
     22139 TIP3     4607     TIP3     OH2      OT      -0.834000       15.9994           0
     22140 TIP3     4607     TIP3     H1       HT       0.417000       1.00800           0
     22141 TIP3     4607     TIP3     H2       HT       0.417000       1.00800           0
     22142 TIP3     4608     TIP3     OH2      OT      -0.834000       15.9994           0
     22143 TIP3     4608     TIP3     H1       HT       0.417000       1.00800           0
     22144 TIP3     4608     TIP3     H2       HT       0.417000       1.00800           0
     22145 TIP3     4609     TIP3     OH2      OT      -0.834000       15.9994           0
     22146 TIP3     4609     TIP3     H1       HT       0.417000       1.00800           0
     22147 TIP3     4609     TIP3     H2       HT       0.417000       1.00800           0
     22148 TIP3     4610     TIP3     OH2      OT      -0.834000       15.9994           0
     22149 TIP3     4610     TIP3     H1       HT       0.417000       1.00800           0
     22150 TIP3     4610     TIP3     H2       HT       0.417000       1.00800           0
     22151 TIP3     4611     TIP3     OH2      OT      -0.834000       15.9994           0
     22152 TIP3     4611     TIP3     H1       HT       0.417000       1.00800           0
     22153 TIP3     4611     TIP3     H2       HT       0.417000       1.00800           0
     22154 TIP3     4612     TIP3     OH2      OT      -0.834000       15.9994           0
     22155 TIP3     4612     TIP3     H1       HT       0.417000       1.00800           0
     22156 TIP3     4612     TIP3     H2       HT       0.417000       1.00800           0
     22157 TIP3     4613     TIP3     OH2      OT      -0.834000       15.9994           0
     22158 TIP3     4613     TIP3     H1       HT       0.417000       1.00800           0
     22159 TIP3     4613     TIP3     H2       HT       0.417000       1.00800           0
     22160 TIP3     4614     TIP3     OH2      OT      -0.834000       15.9994           0
     22161 TIP3     4614     TIP3     H1       HT       0.417000       1.00800           0
     22162 TIP3     4614     TIP3     H2       HT       0.417000       1.00800           0
     22163 TIP3     4615     TIP3     OH2      OT      -0.834000       15.9994           0
     22164 TIP3     4615     TIP3     H1       HT       0.417000       1.00800           0
     22165 TIP3     4615     TIP3     H2       HT       0.417000       1.00800           0
     22166 TIP3     4616     TIP3     OH2      OT      -0.834000       15.9994           0
     22167 TIP3     4616     TIP3     H1       HT       0.417000       1.00800           0
     22168 TIP3     4616     TIP3     H2       HT       0.417000       1.00800           0
     22169 TIP3     4617     TIP3     OH2      OT      -0.834000       15.9994           0
     22170 TIP3     4617     TIP3     H1       HT       0.417000       1.00800           0
     22171 TIP3     4617     TIP3     H2       HT       0.417000       1.00800           0
     22172 TIP3     4618     TIP3     OH2      OT      -0.834000       15.9994           0
     22173 TIP3     4618     TIP3     H1       HT       0.417000       1.00800           0
     22174 TIP3     4618     TIP3     H2       HT       0.417000       1.00800           0
     22175 TIP3     4619     TIP3     OH2      OT      -0.834000       15.9994           0
     22176 TIP3     4619     TIP3     H1       HT       0.417000       1.00800           0
     22177 TIP3     4619     TIP3     H2       HT       0.417000       1.00800           0
     22178 TIP3     4620     TIP3     OH2      OT      -0.834000       15.9994           0
     22179 TIP3     4620     TIP3     H1       HT       0.417000       1.00800           0
     22180 TIP3     4620     TIP3     H2       HT       0.417000       1.00800           0
     22181 TIP3     4621     TIP3     OH2      OT      -0.834000       15.9994           0
     22182 TIP3     4621     TIP3     H1       HT       0.417000       1.00800           0
     22183 TIP3     4621     TIP3     H2       HT       0.417000       1.00800           0
     22184 TIP3     4622     TIP3     OH2      OT      -0.834000       15.9994           0
     22185 TIP3     4622     TIP3     H1       HT       0.417000       1.00800           0
     22186 TIP3     4622     TIP3     H2       HT       0.417000       1.00800           0
     22187 TIP3     4623     TIP3     OH2      OT      -0.834000       15.9994           0
     22188 TIP3     4623     TIP3     H1       HT       0.417000       1.00800           0
     22189 TIP3     4623     TIP3     H2       HT       0.417000       1.00800           0
     22190 TIP3     4624     TIP3     OH2      OT      -0.834000       15.9994           0
     22191 TIP3     4624     TIP3     H1       HT       0.417000       1.00800           0
     22192 TIP3     4624     TIP3     H2       HT       0.417000       1.00800           0
     22193 TIP3     4625     TIP3     OH2      OT      -0.834000       15.9994           0
     22194 TIP3     4625     TIP3     H1       HT       0.417000       1.00800           0
     22195 TIP3     4625     TIP3     H2       HT       0.417000       1.00800           0
     22196 TIP3     4626     TIP3     OH2      OT      -0.834000       15.9994           0
     22197 TIP3     4626     TIP3     H1       HT       0.417000       1.00800           0
     22198 TIP3     4626     TIP3     H2       HT       0.417000       1.00800           0
     22199 TIP3     4627     TIP3     OH2      OT      -0.834000       15.9994           0
     22200 TIP3     4627     TIP3     H1       HT       0.417000       1.00800           0
     22201 TIP3     4627     TIP3     H2       HT       0.417000       1.00800           0
     22202 TIP3     4628     TIP3     OH2      OT      -0.834000       15.9994           0
     22203 TIP3     4628     TIP3     H1       HT       0.417000       1.00800           0
     22204 TIP3     4628     TIP3     H2       HT       0.417000       1.00800           0
     22205 TIP3     4629     TIP3     OH2      OT      -0.834000       15.9994           0
     22206 TIP3     4629     TIP3     H1       HT       0.417000       1.00800           0
     22207 TIP3     4629     TIP3     H2       HT       0.417000       1.00800           0
     22208 TIP3     4630     TIP3     OH2      OT      -0.834000       15.9994           0
     22209 TIP3     4630     TIP3     H1       HT       0.417000       1.00800           0
     22210 TIP3     4630     TIP3     H2       HT       0.417000       1.00800           0
     22211 TIP3     4631     TIP3     OH2      OT      -0.834000       15.9994           0
     22212 TIP3     4631     TIP3     H1       HT       0.417000       1.00800           0
     22213 TIP3     4631     TIP3     H2       HT       0.417000       1.00800           0
     22214 TIP3     4632     TIP3     OH2      OT      -0.834000       15.9994           0
     22215 TIP3     4632     TIP3     H1       HT       0.417000       1.00800           0
     22216 TIP3     4632     TIP3     H2       HT       0.417000       1.00800           0
     22217 TIP3     4633     TIP3     OH2      OT      -0.834000       15.9994           0
     22218 TIP3     4633     TIP3     H1       HT       0.417000       1.00800           0
     22219 TIP3     4633     TIP3     H2       HT       0.417000       1.00800           0
     22220 TIP3     4634     TIP3     OH2      OT      -0.834000       15.9994           0
     22221 TIP3     4634     TIP3     H1       HT       0.417000       1.00800           0
     22222 TIP3     4634     TIP3     H2       HT       0.417000       1.00800           0
     22223 TIP3     4635     TIP3     OH2      OT      -0.834000       15.9994           0
     22224 TIP3     4635     TIP3     H1       HT       0.417000       1.00800           0
     22225 TIP3     4635     TIP3     H2       HT       0.417000       1.00800           0
     22226 TIP3     4636     TIP3     OH2      OT      -0.834000       15.9994           0
     22227 TIP3     4636     TIP3     H1       HT       0.417000       1.00800           0
     22228 TIP3     4636     TIP3     H2       HT       0.417000       1.00800           0
     22229 TIP3     4637     TIP3     OH2      OT      -0.834000       15.9994           0
     22230 TIP3     4637     TIP3     H1       HT       0.417000       1.00800           0
     22231 TIP3     4637     TIP3     H2       HT       0.417000       1.00800           0
     22232 TIP3     4638     TIP3     OH2      OT      -0.834000       15.9994           0
     22233 TIP3     4638     TIP3     H1       HT       0.417000       1.00800           0
     22234 TIP3     4638     TIP3     H2       HT       0.417000       1.00800           0
     22235 TIP3     4639     TIP3     OH2      OT      -0.834000       15.9994           0
     22236 TIP3     4639     TIP3     H1       HT       0.417000       1.00800           0
     22237 TIP3     4639     TIP3     H2       HT       0.417000       1.00800           0
     22238 TIP3     4640     TIP3     OH2      OT      -0.834000       15.9994           0
     22239 TIP3     4640     TIP3     H1       HT       0.417000       1.00800           0
     22240 TIP3     4640     TIP3     H2       HT       0.417000       1.00800           0
     22241 TIP3     4641     TIP3     OH2      OT      -0.834000       15.9994           0
     22242 TIP3     4641     TIP3     H1       HT       0.417000       1.00800           0
     22243 TIP3     4641     TIP3     H2       HT       0.417000       1.00800           0
     22244 TIP3     4642     TIP3     OH2      OT      -0.834000       15.9994           0
     22245 TIP3     4642     TIP3     H1       HT       0.417000       1.00800           0
     22246 TIP3     4642     TIP3     H2       HT       0.417000       1.00800           0
     22247 TIP3     4643     TIP3     OH2      OT      -0.834000       15.9994           0
     22248 TIP3     4643     TIP3     H1       HT       0.417000       1.00800           0
     22249 TIP3     4643     TIP3     H2       HT       0.417000       1.00800           0
     22250 TIP3     4644     TIP3     OH2      OT      -0.834000       15.9994           0
     22251 TIP3     4644     TIP3     H1       HT       0.417000       1.00800           0
     22252 TIP3     4644     TIP3     H2       HT       0.417000       1.00800           0
     22253 TIP3     4645     TIP3     OH2      OT      -0.834000       15.9994           0
     22254 TIP3     4645     TIP3     H1       HT       0.417000       1.00800           0
     22255 TIP3     4645     TIP3     H2       HT       0.417000       1.00800           0
     22256 TIP3     4646     TIP3     OH2      OT      -0.834000       15.9994           0
     22257 TIP3     4646     TIP3     H1       HT       0.417000       1.00800           0
     22258 TIP3     4646     TIP3     H2       HT       0.417000       1.00800           0
     22259 TIP3     4647     TIP3     OH2      OT      -0.834000       15.9994           0
     22260 TIP3     4647     TIP3     H1       HT       0.417000       1.00800           0
     22261 TIP3     4647     TIP3     H2       HT       0.417000       1.00800           0
     22262 TIP3     4648     TIP3     OH2      OT      -0.834000       15.9994           0
     22263 TIP3     4648     TIP3     H1       HT       0.417000       1.00800           0
     22264 TIP3     4648     TIP3     H2       HT       0.417000       1.00800           0
     22265 TIP3     4649     TIP3     OH2      OT      -0.834000       15.9994           0
     22266 TIP3     4649     TIP3     H1       HT       0.417000       1.00800           0
     22267 TIP3     4649     TIP3     H2       HT       0.417000       1.00800           0
     22268 TIP3     4650     TIP3     OH2      OT      -0.834000       15.9994           0
     22269 TIP3     4650     TIP3     H1       HT       0.417000       1.00800           0
     22270 TIP3     4650     TIP3     H2       HT       0.417000       1.00800           0
     22271 TIP3     4651     TIP3     OH2      OT      -0.834000       15.9994           0
     22272 TIP3     4651     TIP3     H1       HT       0.417000       1.00800           0
     22273 TIP3     4651     TIP3     H2       HT       0.417000       1.00800           0
     22274 TIP3     4652     TIP3     OH2      OT      -0.834000       15.9994           0
     22275 TIP3     4652     TIP3     H1       HT       0.417000       1.00800           0
     22276 TIP3     4652     TIP3     H2       HT       0.417000       1.00800           0
     22277 TIP3     4653     TIP3     OH2      OT      -0.834000       15.9994           0
     22278 TIP3     4653     TIP3     H1       HT       0.417000       1.00800           0
     22279 TIP3     4653     TIP3     H2       HT       0.417000       1.00800           0
     22280 TIP3     4654     TIP3     OH2      OT      -0.834000       15.9994           0
     22281 TIP3     4654     TIP3     H1       HT       0.417000       1.00800           0
     22282 TIP3     4654     TIP3     H2       HT       0.417000       1.00800           0
     22283 TIP3     4655     TIP3     OH2      OT      -0.834000       15.9994           0
     22284 TIP3     4655     TIP3     H1       HT       0.417000       1.00800           0
     22285 TIP3     4655     TIP3     H2       HT       0.417000       1.00800           0
     22286 TIP3     4656     TIP3     OH2      OT      -0.834000       15.9994           0
     22287 TIP3     4656     TIP3     H1       HT       0.417000       1.00800           0
     22288 TIP3     4656     TIP3     H2       HT       0.417000       1.00800           0
     22289 TIP3     4657     TIP3     OH2      OT      -0.834000       15.9994           0
     22290 TIP3     4657     TIP3     H1       HT       0.417000       1.00800           0
     22291 TIP3     4657     TIP3     H2       HT       0.417000       1.00800           0
     22292 TIP3     4658     TIP3     OH2      OT      -0.834000       15.9994           0
     22293 TIP3     4658     TIP3     H1       HT       0.417000       1.00800           0
     22294 TIP3     4658     TIP3     H2       HT       0.417000       1.00800           0
     22295 TIP3     4659     TIP3     OH2      OT      -0.834000       15.9994           0
     22296 TIP3     4659     TIP3     H1       HT       0.417000       1.00800           0
     22297 TIP3     4659     TIP3     H2       HT       0.417000       1.00800           0
     22298 TIP3     4660     TIP3     OH2      OT      -0.834000       15.9994           0
     22299 TIP3     4660     TIP3     H1       HT       0.417000       1.00800           0
     22300 TIP3     4660     TIP3     H2       HT       0.417000       1.00800           0
     22301 TIP3     4661     TIP3     OH2      OT      -0.834000       15.9994           0
     22302 TIP3     4661     TIP3     H1       HT       0.417000       1.00800           0
     22303 TIP3     4661     TIP3     H2       HT       0.417000       1.00800           0
     22304 TIP3     4662     TIP3     OH2      OT      -0.834000       15.9994           0
     22305 TIP3     4662     TIP3     H1       HT       0.417000       1.00800           0
     22306 TIP3     4662     TIP3     H2       HT       0.417000       1.00800           0
     22307 TIP3     4663     TIP3     OH2      OT      -0.834000       15.9994           0
     22308 TIP3     4663     TIP3     H1       HT       0.417000       1.00800           0
     22309 TIP3     4663     TIP3     H2       HT       0.417000       1.00800           0
     22310 TIP3     4664     TIP3     OH2      OT      -0.834000       15.9994           0
     22311 TIP3     4664     TIP3     H1       HT       0.417000       1.00800           0
     22312 TIP3     4664     TIP3     H2       HT       0.417000       1.00800           0
     22313 TIP3     4665     TIP3     OH2      OT      -0.834000       15.9994           0
     22314 TIP3     4665     TIP3     H1       HT       0.417000       1.00800           0
     22315 TIP3     4665     TIP3     H2       HT       0.417000       1.00800           0
     22316 TIP3     4666     TIP3     OH2      OT      -0.834000       15.9994           0
     22317 TIP3     4666     TIP3     H1       HT       0.417000       1.00800           0
     22318 TIP3     4666     TIP3     H2       HT       0.417000       1.00800           0
     22319 TIP3     4667     TIP3     OH2      OT      -0.834000       15.9994           0
     22320 TIP3     4667     TIP3     H1       HT       0.417000       1.00800           0
     22321 TIP3     4667     TIP3     H2       HT       0.417000       1.00800           0
     22322 TIP3     4668     TIP3     OH2      OT      -0.834000       15.9994           0
     22323 TIP3     4668     TIP3     H1       HT       0.417000       1.00800           0
     22324 TIP3     4668     TIP3     H2       HT       0.417000       1.00800           0
     22325 TIP3     4669     TIP3     OH2      OT      -0.834000       15.9994           0
     22326 TIP3     4669     TIP3     H1       HT       0.417000       1.00800           0
     22327 TIP3     4669     TIP3     H2       HT       0.417000       1.00800           0
     22328 TIP3     4670     TIP3     OH2      OT      -0.834000       15.9994           0
     22329 TIP3     4670     TIP3     H1       HT       0.417000       1.00800           0
     22330 TIP3     4670     TIP3     H2       HT       0.417000       1.00800           0
     22331 TIP3     4671     TIP3     OH2      OT      -0.834000       15.9994           0
     22332 TIP3     4671     TIP3     H1       HT       0.417000       1.00800           0
     22333 TIP3     4671     TIP3     H2       HT       0.417000       1.00800           0
     22334 TIP3     4672     TIP3     OH2      OT      -0.834000       15.9994           0
     22335 TIP3     4672     TIP3     H1       HT       0.417000       1.00800           0
     22336 TIP3     4672     TIP3     H2       HT       0.417000       1.00800           0
     22337 TIP3     4673     TIP3     OH2      OT      -0.834000       15.9994           0
     22338 TIP3     4673     TIP3     H1       HT       0.417000       1.00800           0
     22339 TIP3     4673     TIP3     H2       HT       0.417000       1.00800           0
     22340 TIP3     4674     TIP3     OH2      OT      -0.834000       15.9994           0
     22341 TIP3     4674     TIP3     H1       HT       0.417000       1.00800           0
     22342 TIP3     4674     TIP3     H2       HT       0.417000       1.00800           0
     22343 TIP3     4675     TIP3     OH2      OT      -0.834000       15.9994           0
     22344 TIP3     4675     TIP3     H1       HT       0.417000       1.00800           0
     22345 TIP3     4675     TIP3     H2       HT       0.417000       1.00800           0
     22346 TIP3     4676     TIP3     OH2      OT      -0.834000       15.9994           0
     22347 TIP3     4676     TIP3     H1       HT       0.417000       1.00800           0
     22348 TIP3     4676     TIP3     H2       HT       0.417000       1.00800           0
     22349 TIP3     4677     TIP3     OH2      OT      -0.834000       15.9994           0
     22350 TIP3     4677     TIP3     H1       HT       0.417000       1.00800           0
     22351 TIP3     4677     TIP3     H2       HT       0.417000       1.00800           0
     22352 TIP3     4678     TIP3     OH2      OT      -0.834000       15.9994           0
     22353 TIP3     4678     TIP3     H1       HT       0.417000       1.00800           0
     22354 TIP3     4678     TIP3     H2       HT       0.417000       1.00800           0
     22355 TIP3     4679     TIP3     OH2      OT      -0.834000       15.9994           0
     22356 TIP3     4679     TIP3     H1       HT       0.417000       1.00800           0
     22357 TIP3     4679     TIP3     H2       HT       0.417000       1.00800           0
     22358 TIP3     4680     TIP3     OH2      OT      -0.834000       15.9994           0
     22359 TIP3     4680     TIP3     H1       HT       0.417000       1.00800           0
     22360 TIP3     4680     TIP3     H2       HT       0.417000       1.00800           0
     22361 TIP3     4681     TIP3     OH2      OT      -0.834000       15.9994           0
     22362 TIP3     4681     TIP3     H1       HT       0.417000       1.00800           0
     22363 TIP3     4681     TIP3     H2       HT       0.417000       1.00800           0
     22364 TIP3     4682     TIP3     OH2      OT      -0.834000       15.9994           0
     22365 TIP3     4682     TIP3     H1       HT       0.417000       1.00800           0
     22366 TIP3     4682     TIP3     H2       HT       0.417000       1.00800           0
     22367 TIP3     4683     TIP3     OH2      OT      -0.834000       15.9994           0
     22368 TIP3     4683     TIP3     H1       HT       0.417000       1.00800           0
     22369 TIP3     4683     TIP3     H2       HT       0.417000       1.00800           0
     22370 TIP3     4684     TIP3     OH2      OT      -0.834000       15.9994           0
     22371 TIP3     4684     TIP3     H1       HT       0.417000       1.00800           0
     22372 TIP3     4684     TIP3     H2       HT       0.417000       1.00800           0
     22373 TIP3     4685     TIP3     OH2      OT      -0.834000       15.9994           0
     22374 TIP3     4685     TIP3     H1       HT       0.417000       1.00800           0
     22375 TIP3     4685     TIP3     H2       HT       0.417000       1.00800           0
     22376 TIP3     4686     TIP3     OH2      OT      -0.834000       15.9994           0
     22377 TIP3     4686     TIP3     H1       HT       0.417000       1.00800           0
     22378 TIP3     4686     TIP3     H2       HT       0.417000       1.00800           0
     22379 TIP3     4687     TIP3     OH2      OT      -0.834000       15.9994           0
     22380 TIP3     4687     TIP3     H1       HT       0.417000       1.00800           0
     22381 TIP3     4687     TIP3     H2       HT       0.417000       1.00800           0
     22382 TIP3     4688     TIP3     OH2      OT      -0.834000       15.9994           0
     22383 TIP3     4688     TIP3     H1       HT       0.417000       1.00800           0
     22384 TIP3     4688     TIP3     H2       HT       0.417000       1.00800           0
     22385 TIP3     4689     TIP3     OH2      OT      -0.834000       15.9994           0
     22386 TIP3     4689     TIP3     H1       HT       0.417000       1.00800           0
     22387 TIP3     4689     TIP3     H2       HT       0.417000       1.00800           0
     22388 TIP3     4690     TIP3     OH2      OT      -0.834000       15.9994           0
     22389 TIP3     4690     TIP3     H1       HT       0.417000       1.00800           0
     22390 TIP3     4690     TIP3     H2       HT       0.417000       1.00800           0
     22391 TIP3     4691     TIP3     OH2      OT      -0.834000       15.9994           0
     22392 TIP3     4691     TIP3     H1       HT       0.417000       1.00800           0
     22393 TIP3     4691     TIP3     H2       HT       0.417000       1.00800           0
     22394 TIP3     4692     TIP3     OH2      OT      -0.834000       15.9994           0
     22395 TIP3     4692     TIP3     H1       HT       0.417000       1.00800           0
     22396 TIP3     4692     TIP3     H2       HT       0.417000       1.00800           0
     22397 TIP3     4693     TIP3     OH2      OT      -0.834000       15.9994           0
     22398 TIP3     4693     TIP3     H1       HT       0.417000       1.00800           0
     22399 TIP3     4693     TIP3     H2       HT       0.417000       1.00800           0
     22400 TIP3     4694     TIP3     OH2      OT      -0.834000       15.9994           0
     22401 TIP3     4694     TIP3     H1       HT       0.417000       1.00800           0
     22402 TIP3     4694     TIP3     H2       HT       0.417000       1.00800           0
     22403 TIP3     4695     TIP3     OH2      OT      -0.834000       15.9994           0
     22404 TIP3     4695     TIP3     H1       HT       0.417000       1.00800           0
     22405 TIP3     4695     TIP3     H2       HT       0.417000       1.00800           0
     22406 TIP3     4696     TIP3     OH2      OT      -0.834000       15.9994           0
     22407 TIP3     4696     TIP3     H1       HT       0.417000       1.00800           0
     22408 TIP3     4696     TIP3     H2       HT       0.417000       1.00800           0
     22409 TIP3     4697     TIP3     OH2      OT      -0.834000       15.9994           0
     22410 TIP3     4697     TIP3     H1       HT       0.417000       1.00800           0
     22411 TIP3     4697     TIP3     H2       HT       0.417000       1.00800           0
     22412 TIP3     4698     TIP3     OH2      OT      -0.834000       15.9994           0
     22413 TIP3     4698     TIP3     H1       HT       0.417000       1.00800           0
     22414 TIP3     4698     TIP3     H2       HT       0.417000       1.00800           0
     22415 TIP3     4699     TIP3     OH2      OT      -0.834000       15.9994           0
     22416 TIP3     4699     TIP3     H1       HT       0.417000       1.00800           0
     22417 TIP3     4699     TIP3     H2       HT       0.417000       1.00800           0
     22418 TIP3     4700     TIP3     OH2      OT      -0.834000       15.9994           0
     22419 TIP3     4700     TIP3     H1       HT       0.417000       1.00800           0
     22420 TIP3     4700     TIP3     H2       HT       0.417000       1.00800           0
     22421 TIP3     4701     TIP3     OH2      OT      -0.834000       15.9994           0
     22422 TIP3     4701     TIP3     H1       HT       0.417000       1.00800           0
     22423 TIP3     4701     TIP3     H2       HT       0.417000       1.00800           0
     22424 TIP3     4702     TIP3     OH2      OT      -0.834000       15.9994           0
     22425 TIP3     4702     TIP3     H1       HT       0.417000       1.00800           0
     22426 TIP3     4702     TIP3     H2       HT       0.417000       1.00800           0
     22427 TIP3     4703     TIP3     OH2      OT      -0.834000       15.9994           0
     22428 TIP3     4703     TIP3     H1       HT       0.417000       1.00800           0
     22429 TIP3     4703     TIP3     H2       HT       0.417000       1.00800           0
     22430 TIP3     4704     TIP3     OH2      OT      -0.834000       15.9994           0
     22431 TIP3     4704     TIP3     H1       HT       0.417000       1.00800           0
     22432 TIP3     4704     TIP3     H2       HT       0.417000       1.00800           0
     22433 TIP3     4705     TIP3     OH2      OT      -0.834000       15.9994           0
     22434 TIP3     4705     TIP3     H1       HT       0.417000       1.00800           0
     22435 TIP3     4705     TIP3     H2       HT       0.417000       1.00800           0
     22436 TIP3     4706     TIP3     OH2      OT      -0.834000       15.9994           0
     22437 TIP3     4706     TIP3     H1       HT       0.417000       1.00800           0
     22438 TIP3     4706     TIP3     H2       HT       0.417000       1.00800           0
     22439 TIP3     4707     TIP3     OH2      OT      -0.834000       15.9994           0
     22440 TIP3     4707     TIP3     H1       HT       0.417000       1.00800           0
     22441 TIP3     4707     TIP3     H2       HT       0.417000       1.00800           0
     22442 TIP3     4708     TIP3     OH2      OT      -0.834000       15.9994           0
     22443 TIP3     4708     TIP3     H1       HT       0.417000       1.00800           0
     22444 TIP3     4708     TIP3     H2       HT       0.417000       1.00800           0
     22445 TIP3     4709     TIP3     OH2      OT      -0.834000       15.9994           0
     22446 TIP3     4709     TIP3     H1       HT       0.417000       1.00800           0
     22447 TIP3     4709     TIP3     H2       HT       0.417000       1.00800           0
     22448 TIP3     4710     TIP3     OH2      OT      -0.834000       15.9994           0
     22449 TIP3     4710     TIP3     H1       HT       0.417000       1.00800           0
     22450 TIP3     4710     TIP3     H2       HT       0.417000       1.00800           0
     22451 TIP3     4711     TIP3     OH2      OT      -0.834000       15.9994           0
     22452 TIP3     4711     TIP3     H1       HT       0.417000       1.00800           0
     22453 TIP3     4711     TIP3     H2       HT       0.417000       1.00800           0
     22454 TIP3     4712     TIP3     OH2      OT      -0.834000       15.9994           0
     22455 TIP3     4712     TIP3     H1       HT       0.417000       1.00800           0
     22456 TIP3     4712     TIP3     H2       HT       0.417000       1.00800           0
     22457 TIP3     4713     TIP3     OH2      OT      -0.834000       15.9994           0
     22458 TIP3     4713     TIP3     H1       HT       0.417000       1.00800           0
     22459 TIP3     4713     TIP3     H2       HT       0.417000       1.00800           0
     22460 TIP3     4714     TIP3     OH2      OT      -0.834000       15.9994           0
     22461 TIP3     4714     TIP3     H1       HT       0.417000       1.00800           0
     22462 TIP3     4714     TIP3     H2       HT       0.417000       1.00800           0
     22463 TIP3     4715     TIP3     OH2      OT      -0.834000       15.9994           0
     22464 TIP3     4715     TIP3     H1       HT       0.417000       1.00800           0
     22465 TIP3     4715     TIP3     H2       HT       0.417000       1.00800           0
     22466 TIP3     4716     TIP3     OH2      OT      -0.834000       15.9994           0
     22467 TIP3     4716     TIP3     H1       HT       0.417000       1.00800           0
     22468 TIP3     4716     TIP3     H2       HT       0.417000       1.00800           0
     22469 TIP3     4717     TIP3     OH2      OT      -0.834000       15.9994           0
     22470 TIP3     4717     TIP3     H1       HT       0.417000       1.00800           0
     22471 TIP3     4717     TIP3     H2       HT       0.417000       1.00800           0
     22472 TIP3     4718     TIP3     OH2      OT      -0.834000       15.9994           0
     22473 TIP3     4718     TIP3     H1       HT       0.417000       1.00800           0
     22474 TIP3     4718     TIP3     H2       HT       0.417000       1.00800           0
     22475 TIP3     4719     TIP3     OH2      OT      -0.834000       15.9994           0
     22476 TIP3     4719     TIP3     H1       HT       0.417000       1.00800           0
     22477 TIP3     4719     TIP3     H2       HT       0.417000       1.00800           0
     22478 TIP3     4720     TIP3     OH2      OT      -0.834000       15.9994           0
     22479 TIP3     4720     TIP3     H1       HT       0.417000       1.00800           0
     22480 TIP3     4720     TIP3     H2       HT       0.417000       1.00800           0
     22481 TIP3     4721     TIP3     OH2      OT      -0.834000       15.9994           0
     22482 TIP3     4721     TIP3     H1       HT       0.417000       1.00800           0
     22483 TIP3     4721     TIP3     H2       HT       0.417000       1.00800           0
     22484 TIP3     4722     TIP3     OH2      OT      -0.834000       15.9994           0
     22485 TIP3     4722     TIP3     H1       HT       0.417000       1.00800           0
     22486 TIP3     4722     TIP3     H2       HT       0.417000       1.00800           0
     22487 TIP3     4723     TIP3     OH2      OT      -0.834000       15.9994           0
     22488 TIP3     4723     TIP3     H1       HT       0.417000       1.00800           0
     22489 TIP3     4723     TIP3     H2       HT       0.417000       1.00800           0
     22490 TIP3     4724     TIP3     OH2      OT      -0.834000       15.9994           0
     22491 TIP3     4724     TIP3     H1       HT       0.417000       1.00800           0
     22492 TIP3     4724     TIP3     H2       HT       0.417000       1.00800           0
     22493 TIP3     4725     TIP3     OH2      OT      -0.834000       15.9994           0
     22494 TIP3     4725     TIP3     H1       HT       0.417000       1.00800           0
     22495 TIP3     4725     TIP3     H2       HT       0.417000       1.00800           0
     22496 TIP3     4726     TIP3     OH2      OT      -0.834000       15.9994           0
     22497 TIP3     4726     TIP3     H1       HT       0.417000       1.00800           0
     22498 TIP3     4726     TIP3     H2       HT       0.417000       1.00800           0
     22499 TIP3     4727     TIP3     OH2      OT      -0.834000       15.9994           0
     22500 TIP3     4727     TIP3     H1       HT       0.417000       1.00800           0
     22501 TIP3     4727     TIP3     H2       HT       0.417000       1.00800           0
     22502 TIP3     4728     TIP3     OH2      OT      -0.834000       15.9994           0
     22503 TIP3     4728     TIP3     H1       HT       0.417000       1.00800           0
     22504 TIP3     4728     TIP3     H2       HT       0.417000       1.00800           0
     22505 TIP3     4729     TIP3     OH2      OT      -0.834000       15.9994           0
     22506 TIP3     4729     TIP3     H1       HT       0.417000       1.00800           0
     22507 TIP3     4729     TIP3     H2       HT       0.417000       1.00800           0
     22508 TIP3     4730     TIP3     OH2      OT      -0.834000       15.9994           0
     22509 TIP3     4730     TIP3     H1       HT       0.417000       1.00800           0
     22510 TIP3     4730     TIP3     H2       HT       0.417000       1.00800           0
     22511 TIP3     4731     TIP3     OH2      OT      -0.834000       15.9994           0
     22512 TIP3     4731     TIP3     H1       HT       0.417000       1.00800           0
     22513 TIP3     4731     TIP3     H2       HT       0.417000       1.00800           0
     22514 TIP3     4732     TIP3     OH2      OT      -0.834000       15.9994           0
     22515 TIP3     4732     TIP3     H1       HT       0.417000       1.00800           0
     22516 TIP3     4732     TIP3     H2       HT       0.417000       1.00800           0
     22517 TIP3     4733     TIP3     OH2      OT      -0.834000       15.9994           0
     22518 TIP3     4733     TIP3     H1       HT       0.417000       1.00800           0
     22519 TIP3     4733     TIP3     H2       HT       0.417000       1.00800           0
     22520 TIP3     4734     TIP3     OH2      OT      -0.834000       15.9994           0
     22521 TIP3     4734     TIP3     H1       HT       0.417000       1.00800           0
     22522 TIP3     4734     TIP3     H2       HT       0.417000       1.00800           0
     22523 TIP3     4735     TIP3     OH2      OT      -0.834000       15.9994           0
     22524 TIP3     4735     TIP3     H1       HT       0.417000       1.00800           0
     22525 TIP3     4735     TIP3     H2       HT       0.417000       1.00800           0
     22526 TIP3     4736     TIP3     OH2      OT      -0.834000       15.9994           0
     22527 TIP3     4736     TIP3     H1       HT       0.417000       1.00800           0
     22528 TIP3     4736     TIP3     H2       HT       0.417000       1.00800           0
     22529 TIP3     4737     TIP3     OH2      OT      -0.834000       15.9994           0
     22530 TIP3     4737     TIP3     H1       HT       0.417000       1.00800           0
     22531 TIP3     4737     TIP3     H2       HT       0.417000       1.00800           0
     22532 TIP3     4738     TIP3     OH2      OT      -0.834000       15.9994           0
     22533 TIP3     4738     TIP3     H1       HT       0.417000       1.00800           0
     22534 TIP3     4738     TIP3     H2       HT       0.417000       1.00800           0
     22535 TIP3     4739     TIP3     OH2      OT      -0.834000       15.9994           0
     22536 TIP3     4739     TIP3     H1       HT       0.417000       1.00800           0
     22537 TIP3     4739     TIP3     H2       HT       0.417000       1.00800           0
     22538 TIP3     4740     TIP3     OH2      OT      -0.834000       15.9994           0
     22539 TIP3     4740     TIP3     H1       HT       0.417000       1.00800           0
     22540 TIP3     4740     TIP3     H2       HT       0.417000       1.00800           0
     22541 TIP3     4741     TIP3     OH2      OT      -0.834000       15.9994           0
     22542 TIP3     4741     TIP3     H1       HT       0.417000       1.00800           0
     22543 TIP3     4741     TIP3     H2       HT       0.417000       1.00800           0
     22544 TIP3     4742     TIP3     OH2      OT      -0.834000       15.9994           0
     22545 TIP3     4742     TIP3     H1       HT       0.417000       1.00800           0
     22546 TIP3     4742     TIP3     H2       HT       0.417000       1.00800           0
     22547 TIP3     4743     TIP3     OH2      OT      -0.834000       15.9994           0
     22548 TIP3     4743     TIP3     H1       HT       0.417000       1.00800           0
     22549 TIP3     4743     TIP3     H2       HT       0.417000       1.00800           0
     22550 TIP3     4744     TIP3     OH2      OT      -0.834000       15.9994           0
     22551 TIP3     4744     TIP3     H1       HT       0.417000       1.00800           0
     22552 TIP3     4744     TIP3     H2       HT       0.417000       1.00800           0
     22553 TIP3     4745     TIP3     OH2      OT      -0.834000       15.9994           0
     22554 TIP3     4745     TIP3     H1       HT       0.417000       1.00800           0
     22555 TIP3     4745     TIP3     H2       HT       0.417000       1.00800           0
     22556 TIP3     4746     TIP3     OH2      OT      -0.834000       15.9994           0
     22557 TIP3     4746     TIP3     H1       HT       0.417000       1.00800           0
     22558 TIP3     4746     TIP3     H2       HT       0.417000       1.00800           0
     22559 TIP3     4747     TIP3     OH2      OT      -0.834000       15.9994           0
     22560 TIP3     4747     TIP3     H1       HT       0.417000       1.00800           0
     22561 TIP3     4747     TIP3     H2       HT       0.417000       1.00800           0
     22562 TIP3     4748     TIP3     OH2      OT      -0.834000       15.9994           0
     22563 TIP3     4748     TIP3     H1       HT       0.417000       1.00800           0
     22564 TIP3     4748     TIP3     H2       HT       0.417000       1.00800           0
     22565 TIP3     4749     TIP3     OH2      OT      -0.834000       15.9994           0
     22566 TIP3     4749     TIP3     H1       HT       0.417000       1.00800           0
     22567 TIP3     4749     TIP3     H2       HT       0.417000       1.00800           0
     22568 TIP3     4750     TIP3     OH2      OT      -0.834000       15.9994           0
     22569 TIP3     4750     TIP3     H1       HT       0.417000       1.00800           0
     22570 TIP3     4750     TIP3     H2       HT       0.417000       1.00800           0
     22571 TIP3     4751     TIP3     OH2      OT      -0.834000       15.9994           0
     22572 TIP3     4751     TIP3     H1       HT       0.417000       1.00800           0
     22573 TIP3     4751     TIP3     H2       HT       0.417000       1.00800           0
     22574 TIP3     4752     TIP3     OH2      OT      -0.834000       15.9994           0
     22575 TIP3     4752     TIP3     H1       HT       0.417000       1.00800           0
     22576 TIP3     4752     TIP3     H2       HT       0.417000       1.00800           0
     22577 TIP3     4753     TIP3     OH2      OT      -0.834000       15.9994           0
     22578 TIP3     4753     TIP3     H1       HT       0.417000       1.00800           0
     22579 TIP3     4753     TIP3     H2       HT       0.417000       1.00800           0
     22580 TIP3     4754     TIP3     OH2      OT      -0.834000       15.9994           0
     22581 TIP3     4754     TIP3     H1       HT       0.417000       1.00800           0
     22582 TIP3     4754     TIP3     H2       HT       0.417000       1.00800           0
     22583 TIP3     4755     TIP3     OH2      OT      -0.834000       15.9994           0
     22584 TIP3     4755     TIP3     H1       HT       0.417000       1.00800           0
     22585 TIP3     4755     TIP3     H2       HT       0.417000       1.00800           0
     22586 TIP3     4756     TIP3     OH2      OT      -0.834000       15.9994           0
     22587 TIP3     4756     TIP3     H1       HT       0.417000       1.00800           0
     22588 TIP3     4756     TIP3     H2       HT       0.417000       1.00800           0
     22589 TIP3     4757     TIP3     OH2      OT      -0.834000       15.9994           0
     22590 TIP3     4757     TIP3     H1       HT       0.417000       1.00800           0
     22591 TIP3     4757     TIP3     H2       HT       0.417000       1.00800           0
     22592 TIP3     4758     TIP3     OH2      OT      -0.834000       15.9994           0
     22593 TIP3     4758     TIP3     H1       HT       0.417000       1.00800           0
     22594 TIP3     4758     TIP3     H2       HT       0.417000       1.00800           0
     22595 TIP3     4759     TIP3     OH2      OT      -0.834000       15.9994           0
     22596 TIP3     4759     TIP3     H1       HT       0.417000       1.00800           0
     22597 TIP3     4759     TIP3     H2       HT       0.417000       1.00800           0
     22598 TIP3     4760     TIP3     OH2      OT      -0.834000       15.9994           0
     22599 TIP3     4760     TIP3     H1       HT       0.417000       1.00800           0
     22600 TIP3     4760     TIP3     H2       HT       0.417000       1.00800           0
     22601 TIP3     4761     TIP3     OH2      OT      -0.834000       15.9994           0
     22602 TIP3     4761     TIP3     H1       HT       0.417000       1.00800           0
     22603 TIP3     4761     TIP3     H2       HT       0.417000       1.00800           0
     22604 TIP3     4762     TIP3     OH2      OT      -0.834000       15.9994           0
     22605 TIP3     4762     TIP3     H1       HT       0.417000       1.00800           0
     22606 TIP3     4762     TIP3     H2       HT       0.417000       1.00800           0
     22607 TIP3     4763     TIP3     OH2      OT      -0.834000       15.9994           0
     22608 TIP3     4763     TIP3     H1       HT       0.417000       1.00800           0
     22609 TIP3     4763     TIP3     H2       HT       0.417000       1.00800           0
     22610 TIP3     4764     TIP3     OH2      OT      -0.834000       15.9994           0
     22611 TIP3     4764     TIP3     H1       HT       0.417000       1.00800           0
     22612 TIP3     4764     TIP3     H2       HT       0.417000       1.00800           0
     22613 TIP3     4765     TIP3     OH2      OT      -0.834000       15.9994           0
     22614 TIP3     4765     TIP3     H1       HT       0.417000       1.00800           0
     22615 TIP3     4765     TIP3     H2       HT       0.417000       1.00800           0
     22616 TIP3     4766     TIP3     OH2      OT      -0.834000       15.9994           0
     22617 TIP3     4766     TIP3     H1       HT       0.417000       1.00800           0
     22618 TIP3     4766     TIP3     H2       HT       0.417000       1.00800           0
     22619 TIP3     4767     TIP3     OH2      OT      -0.834000       15.9994           0
     22620 TIP3     4767     TIP3     H1       HT       0.417000       1.00800           0
     22621 TIP3     4767     TIP3     H2       HT       0.417000       1.00800           0
     22622 TIP3     4768     TIP3     OH2      OT      -0.834000       15.9994           0
     22623 TIP3     4768     TIP3     H1       HT       0.417000       1.00800           0
     22624 TIP3     4768     TIP3     H2       HT       0.417000       1.00800           0
     22625 TIP3     4769     TIP3     OH2      OT      -0.834000       15.9994           0
     22626 TIP3     4769     TIP3     H1       HT       0.417000       1.00800           0
     22627 TIP3     4769     TIP3     H2       HT       0.417000       1.00800           0
     22628 TIP3     4770     TIP3     OH2      OT      -0.834000       15.9994           0
     22629 TIP3     4770     TIP3     H1       HT       0.417000       1.00800           0
     22630 TIP3     4770     TIP3     H2       HT       0.417000       1.00800           0
     22631 TIP3     4771     TIP3     OH2      OT      -0.834000       15.9994           0
     22632 TIP3     4771     TIP3     H1       HT       0.417000       1.00800           0
     22633 TIP3     4771     TIP3     H2       HT       0.417000       1.00800           0
     22634 TIP3     4772     TIP3     OH2      OT      -0.834000       15.9994           0
     22635 TIP3     4772     TIP3     H1       HT       0.417000       1.00800           0
     22636 TIP3     4772     TIP3     H2       HT       0.417000       1.00800           0
     22637 TIP3     4773     TIP3     OH2      OT      -0.834000       15.9994           0
     22638 TIP3     4773     TIP3     H1       HT       0.417000       1.00800           0
     22639 TIP3     4773     TIP3     H2       HT       0.417000       1.00800           0
     22640 TIP3     4774     TIP3     OH2      OT      -0.834000       15.9994           0
     22641 TIP3     4774     TIP3     H1       HT       0.417000       1.00800           0
     22642 TIP3     4774     TIP3     H2       HT       0.417000       1.00800           0
     22643 TIP3     4775     TIP3     OH2      OT      -0.834000       15.9994           0
     22644 TIP3     4775     TIP3     H1       HT       0.417000       1.00800           0
     22645 TIP3     4775     TIP3     H2       HT       0.417000       1.00800           0
     22646 TIP3     4776     TIP3     OH2      OT      -0.834000       15.9994           0
     22647 TIP3     4776     TIP3     H1       HT       0.417000       1.00800           0
     22648 TIP3     4776     TIP3     H2       HT       0.417000       1.00800           0
     22649 TIP3     4777     TIP3     OH2      OT      -0.834000       15.9994           0
     22650 TIP3     4777     TIP3     H1       HT       0.417000       1.00800           0
     22651 TIP3     4777     TIP3     H2       HT       0.417000       1.00800           0
     22652 TIP3     4778     TIP3     OH2      OT      -0.834000       15.9994           0
     22653 TIP3     4778     TIP3     H1       HT       0.417000       1.00800           0
     22654 TIP3     4778     TIP3     H2       HT       0.417000       1.00800           0
     22655 TIP3     4779     TIP3     OH2      OT      -0.834000       15.9994           0
     22656 TIP3     4779     TIP3     H1       HT       0.417000       1.00800           0
     22657 TIP3     4779     TIP3     H2       HT       0.417000       1.00800           0
     22658 TIP3     4780     TIP3     OH2      OT      -0.834000       15.9994           0
     22659 TIP3     4780     TIP3     H1       HT       0.417000       1.00800           0
     22660 TIP3     4780     TIP3     H2       HT       0.417000       1.00800           0
     22661 TIP3     4781     TIP3     OH2      OT      -0.834000       15.9994           0
     22662 TIP3     4781     TIP3     H1       HT       0.417000       1.00800           0
     22663 TIP3     4781     TIP3     H2       HT       0.417000       1.00800           0
     22664 TIP3     4782     TIP3     OH2      OT      -0.834000       15.9994           0
     22665 TIP3     4782     TIP3     H1       HT       0.417000       1.00800           0
     22666 TIP3     4782     TIP3     H2       HT       0.417000       1.00800           0
     22667 TIP3     4783     TIP3     OH2      OT      -0.834000       15.9994           0
     22668 TIP3     4783     TIP3     H1       HT       0.417000       1.00800           0
     22669 TIP3     4783     TIP3     H2       HT       0.417000       1.00800           0
     22670 TIP3     4784     TIP3     OH2      OT      -0.834000       15.9994           0
     22671 TIP3     4784     TIP3     H1       HT       0.417000       1.00800           0
     22672 TIP3     4784     TIP3     H2       HT       0.417000       1.00800           0
     22673 TIP3     4785     TIP3     OH2      OT      -0.834000       15.9994           0
     22674 TIP3     4785     TIP3     H1       HT       0.417000       1.00800           0
     22675 TIP3     4785     TIP3     H2       HT       0.417000       1.00800           0
     22676 TIP3     4786     TIP3     OH2      OT      -0.834000       15.9994           0
     22677 TIP3     4786     TIP3     H1       HT       0.417000       1.00800           0
     22678 TIP3     4786     TIP3     H2       HT       0.417000       1.00800           0
     22679 TIP3     4787     TIP3     OH2      OT      -0.834000       15.9994           0
     22680 TIP3     4787     TIP3     H1       HT       0.417000       1.00800           0
     22681 TIP3     4787     TIP3     H2       HT       0.417000       1.00800           0
     22682 TIP3     4788     TIP3     OH2      OT      -0.834000       15.9994           0
     22683 TIP3     4788     TIP3     H1       HT       0.417000       1.00800           0
     22684 TIP3     4788     TIP3     H2       HT       0.417000       1.00800           0
     22685 TIP3     4789     TIP3     OH2      OT      -0.834000       15.9994           0
     22686 TIP3     4789     TIP3     H1       HT       0.417000       1.00800           0
     22687 TIP3     4789     TIP3     H2       HT       0.417000       1.00800           0
     22688 TIP3     4790     TIP3     OH2      OT      -0.834000       15.9994           0
     22689 TIP3     4790     TIP3     H1       HT       0.417000       1.00800           0
     22690 TIP3     4790     TIP3     H2       HT       0.417000       1.00800           0
     22691 TIP3     4791     TIP3     OH2      OT      -0.834000       15.9994           0
     22692 TIP3     4791     TIP3     H1       HT       0.417000       1.00800           0
     22693 TIP3     4791     TIP3     H2       HT       0.417000       1.00800           0
     22694 TIP3     4792     TIP3     OH2      OT      -0.834000       15.9994           0
     22695 TIP3     4792     TIP3     H1       HT       0.417000       1.00800           0
     22696 TIP3     4792     TIP3     H2       HT       0.417000       1.00800           0
     22697 TIP3     4793     TIP3     OH2      OT      -0.834000       15.9994           0
     22698 TIP3     4793     TIP3     H1       HT       0.417000       1.00800           0
     22699 TIP3     4793     TIP3     H2       HT       0.417000       1.00800           0
     22700 TIP3     4794     TIP3     OH2      OT      -0.834000       15.9994           0
     22701 TIP3     4794     TIP3     H1       HT       0.417000       1.00800           0
     22702 TIP3     4794     TIP3     H2       HT       0.417000       1.00800           0
     22703 TIP3     4795     TIP3     OH2      OT      -0.834000       15.9994           0
     22704 TIP3     4795     TIP3     H1       HT       0.417000       1.00800           0
     22705 TIP3     4795     TIP3     H2       HT       0.417000       1.00800           0
     22706 TIP3     4796     TIP3     OH2      OT      -0.834000       15.9994           0
     22707 TIP3     4796     TIP3     H1       HT       0.417000       1.00800           0
     22708 TIP3     4796     TIP3     H2       HT       0.417000       1.00800           0
     22709 TIP3     4797     TIP3     OH2      OT      -0.834000       15.9994           0
     22710 TIP3     4797     TIP3     H1       HT       0.417000       1.00800           0
     22711 TIP3     4797     TIP3     H2       HT       0.417000       1.00800           0
     22712 TIP3     4798     TIP3     OH2      OT      -0.834000       15.9994           0
     22713 TIP3     4798     TIP3     H1       HT       0.417000       1.00800           0
     22714 TIP3     4798     TIP3     H2       HT       0.417000       1.00800           0
     22715 TIP3     4799     TIP3     OH2      OT      -0.834000       15.9994           0
     22716 TIP3     4799     TIP3     H1       HT       0.417000       1.00800           0
     22717 TIP3     4799     TIP3     H2       HT       0.417000       1.00800           0
     22718 TIP3     4800     TIP3     OH2      OT      -0.834000       15.9994           0
     22719 TIP3     4800     TIP3     H1       HT       0.417000       1.00800           0
     22720 TIP3     4800     TIP3     H2       HT       0.417000       1.00800           0
     22721 TIP3     4801     TIP3     OH2      OT      -0.834000       15.9994           0
     22722 TIP3     4801     TIP3     H1       HT       0.417000       1.00800           0
     22723 TIP3     4801     TIP3     H2       HT       0.417000       1.00800           0
     22724 TIP3     4802     TIP3     OH2      OT      -0.834000       15.9994           0
     22725 TIP3     4802     TIP3     H1       HT       0.417000       1.00800           0
     22726 TIP3     4802     TIP3     H2       HT       0.417000       1.00800           0
     22727 TIP3     4803     TIP3     OH2      OT      -0.834000       15.9994           0
     22728 TIP3     4803     TIP3     H1       HT       0.417000       1.00800           0
     22729 TIP3     4803     TIP3     H2       HT       0.417000       1.00800           0
     22730 TIP3     4804     TIP3     OH2      OT      -0.834000       15.9994           0
     22731 TIP3     4804     TIP3     H1       HT       0.417000       1.00800           0
     22732 TIP3     4804     TIP3     H2       HT       0.417000       1.00800           0
     22733 TIP3     4805     TIP3     OH2      OT      -0.834000       15.9994           0
     22734 TIP3     4805     TIP3     H1       HT       0.417000       1.00800           0
     22735 TIP3     4805     TIP3     H2       HT       0.417000       1.00800           0
     22736 TIP3     4806     TIP3     OH2      OT      -0.834000       15.9994           0
     22737 TIP3     4806     TIP3     H1       HT       0.417000       1.00800           0
     22738 TIP3     4806     TIP3     H2       HT       0.417000       1.00800           0
     22739 TIP3     4807     TIP3     OH2      OT      -0.834000       15.9994           0
     22740 TIP3     4807     TIP3     H1       HT       0.417000       1.00800           0
     22741 TIP3     4807     TIP3     H2       HT       0.417000       1.00800           0
     22742 TIP3     4808     TIP3     OH2      OT      -0.834000       15.9994           0
     22743 TIP3     4808     TIP3     H1       HT       0.417000       1.00800           0
     22744 TIP3     4808     TIP3     H2       HT       0.417000       1.00800           0
     22745 TIP3     4809     TIP3     OH2      OT      -0.834000       15.9994           0
     22746 TIP3     4809     TIP3     H1       HT       0.417000       1.00800           0
     22747 TIP3     4809     TIP3     H2       HT       0.417000       1.00800           0
     22748 TIP3     4810     TIP3     OH2      OT      -0.834000       15.9994           0
     22749 TIP3     4810     TIP3     H1       HT       0.417000       1.00800           0
     22750 TIP3     4810     TIP3     H2       HT       0.417000       1.00800           0
     22751 TIP3     4811     TIP3     OH2      OT      -0.834000       15.9994           0
     22752 TIP3     4811     TIP3     H1       HT       0.417000       1.00800           0
     22753 TIP3     4811     TIP3     H2       HT       0.417000       1.00800           0
     22754 TIP3     4812     TIP3     OH2      OT      -0.834000       15.9994           0
     22755 TIP3     4812     TIP3     H1       HT       0.417000       1.00800           0
     22756 TIP3     4812     TIP3     H2       HT       0.417000       1.00800           0
     22757 TIP3     4813     TIP3     OH2      OT      -0.834000       15.9994           0
     22758 TIP3     4813     TIP3     H1       HT       0.417000       1.00800           0
     22759 TIP3     4813     TIP3     H2       HT       0.417000       1.00800           0
     22760 TIP3     4814     TIP3     OH2      OT      -0.834000       15.9994           0
     22761 TIP3     4814     TIP3     H1       HT       0.417000       1.00800           0
     22762 TIP3     4814     TIP3     H2       HT       0.417000       1.00800           0
     22763 TIP3     4815     TIP3     OH2      OT      -0.834000       15.9994           0
     22764 TIP3     4815     TIP3     H1       HT       0.417000       1.00800           0
     22765 TIP3     4815     TIP3     H2       HT       0.417000       1.00800           0
     22766 TIP3     4816     TIP3     OH2      OT      -0.834000       15.9994           0
     22767 TIP3     4816     TIP3     H1       HT       0.417000       1.00800           0
     22768 TIP3     4816     TIP3     H2       HT       0.417000       1.00800           0
     22769 TIP3     4817     TIP3     OH2      OT      -0.834000       15.9994           0
     22770 TIP3     4817     TIP3     H1       HT       0.417000       1.00800           0
     22771 TIP3     4817     TIP3     H2       HT       0.417000       1.00800           0
     22772 TIP3     4818     TIP3     OH2      OT      -0.834000       15.9994           0
     22773 TIP3     4818     TIP3     H1       HT       0.417000       1.00800           0
     22774 TIP3     4818     TIP3     H2       HT       0.417000       1.00800           0
     22775 TIP3     4819     TIP3     OH2      OT      -0.834000       15.9994           0
     22776 TIP3     4819     TIP3     H1       HT       0.417000       1.00800           0
     22777 TIP3     4819     TIP3     H2       HT       0.417000       1.00800           0
     22778 TIP3     4820     TIP3     OH2      OT      -0.834000       15.9994           0
     22779 TIP3     4820     TIP3     H1       HT       0.417000       1.00800           0
     22780 TIP3     4820     TIP3     H2       HT       0.417000       1.00800           0
     22781 TIP3     4821     TIP3     OH2      OT      -0.834000       15.9994           0
     22782 TIP3     4821     TIP3     H1       HT       0.417000       1.00800           0
     22783 TIP3     4821     TIP3     H2       HT       0.417000       1.00800           0
     22784 TIP3     4822     TIP3     OH2      OT      -0.834000       15.9994           0
     22785 TIP3     4822     TIP3     H1       HT       0.417000       1.00800           0
     22786 TIP3     4822     TIP3     H2       HT       0.417000       1.00800           0
     22787 TIP3     4823     TIP3     OH2      OT      -0.834000       15.9994           0
     22788 TIP3     4823     TIP3     H1       HT       0.417000       1.00800           0
     22789 TIP3     4823     TIP3     H2       HT       0.417000       1.00800           0
     22790 TIP3     4824     TIP3     OH2      OT      -0.834000       15.9994           0
     22791 TIP3     4824     TIP3     H1       HT       0.417000       1.00800           0
     22792 TIP3     4824     TIP3     H2       HT       0.417000       1.00800           0
     22793 TIP3     4825     TIP3     OH2      OT      -0.834000       15.9994           0
     22794 TIP3     4825     TIP3     H1       HT       0.417000       1.00800           0
     22795 TIP3     4825     TIP3     H2       HT       0.417000       1.00800           0
     22796 TIP3     4826     TIP3     OH2      OT      -0.834000       15.9994           0
     22797 TIP3     4826     TIP3     H1       HT       0.417000       1.00800           0
     22798 TIP3     4826     TIP3     H2       HT       0.417000       1.00800           0
     22799 TIP3     4827     TIP3     OH2      OT      -0.834000       15.9994           0
     22800 TIP3     4827     TIP3     H1       HT       0.417000       1.00800           0
     22801 TIP3     4827     TIP3     H2       HT       0.417000       1.00800           0
     22802 TIP3     4828     TIP3     OH2      OT      -0.834000       15.9994           0
     22803 TIP3     4828     TIP3     H1       HT       0.417000       1.00800           0
     22804 TIP3     4828     TIP3     H2       HT       0.417000       1.00800           0
     22805 TIP3     4829     TIP3     OH2      OT      -0.834000       15.9994           0
     22806 TIP3     4829     TIP3     H1       HT       0.417000       1.00800           0
     22807 TIP3     4829     TIP3     H2       HT       0.417000       1.00800           0
     22808 TIP3     4830     TIP3     OH2      OT      -0.834000       15.9994           0
     22809 TIP3     4830     TIP3     H1       HT       0.417000       1.00800           0
     22810 TIP3     4830     TIP3     H2       HT       0.417000       1.00800           0
     22811 TIP3     4831     TIP3     OH2      OT      -0.834000       15.9994           0
     22812 TIP3     4831     TIP3     H1       HT       0.417000       1.00800           0
     22813 TIP3     4831     TIP3     H2       HT       0.417000       1.00800           0
     22814 TIP3     4832     TIP3     OH2      OT      -0.834000       15.9994           0
     22815 TIP3     4832     TIP3     H1       HT       0.417000       1.00800           0
     22816 TIP3     4832     TIP3     H2       HT       0.417000       1.00800           0
     22817 TIP3     4833     TIP3     OH2      OT      -0.834000       15.9994           0
     22818 TIP3     4833     TIP3     H1       HT       0.417000       1.00800           0
     22819 TIP3     4833     TIP3     H2       HT       0.417000       1.00800           0
     22820 TIP3     4834     TIP3     OH2      OT      -0.834000       15.9994           0
     22821 TIP3     4834     TIP3     H1       HT       0.417000       1.00800           0
     22822 TIP3     4834     TIP3     H2       HT       0.417000       1.00800           0
     22823 TIP3     4835     TIP3     OH2      OT      -0.834000       15.9994           0
     22824 TIP3     4835     TIP3     H1       HT       0.417000       1.00800           0
     22825 TIP3     4835     TIP3     H2       HT       0.417000       1.00800           0
     22826 TIP3     4836     TIP3     OH2      OT      -0.834000       15.9994           0
     22827 TIP3     4836     TIP3     H1       HT       0.417000       1.00800           0
     22828 TIP3     4836     TIP3     H2       HT       0.417000       1.00800           0
     22829 TIP3     4837     TIP3     OH2      OT      -0.834000       15.9994           0
     22830 TIP3     4837     TIP3     H1       HT       0.417000       1.00800           0
     22831 TIP3     4837     TIP3     H2       HT       0.417000       1.00800           0
     22832 TIP3     4838     TIP3     OH2      OT      -0.834000       15.9994           0
     22833 TIP3     4838     TIP3     H1       HT       0.417000       1.00800           0
     22834 TIP3     4838     TIP3     H2       HT       0.417000       1.00800           0
     22835 TIP3     4839     TIP3     OH2      OT      -0.834000       15.9994           0
     22836 TIP3     4839     TIP3     H1       HT       0.417000       1.00800           0
     22837 TIP3     4839     TIP3     H2       HT       0.417000       1.00800           0
     22838 TIP3     4840     TIP3     OH2      OT      -0.834000       15.9994           0
     22839 TIP3     4840     TIP3     H1       HT       0.417000       1.00800           0
     22840 TIP3     4840     TIP3     H2       HT       0.417000       1.00800           0
     22841 TIP3     4841     TIP3     OH2      OT      -0.834000       15.9994           0
     22842 TIP3     4841     TIP3     H1       HT       0.417000       1.00800           0
     22843 TIP3     4841     TIP3     H2       HT       0.417000       1.00800           0
     22844 TIP3     4842     TIP3     OH2      OT      -0.834000       15.9994           0
     22845 TIP3     4842     TIP3     H1       HT       0.417000       1.00800           0
     22846 TIP3     4842     TIP3     H2       HT       0.417000       1.00800           0
     22847 TIP3     4843     TIP3     OH2      OT      -0.834000       15.9994           0
     22848 TIP3     4843     TIP3     H1       HT       0.417000       1.00800           0
     22849 TIP3     4843     TIP3     H2       HT       0.417000       1.00800           0
     22850 TIP3     4844     TIP3     OH2      OT      -0.834000       15.9994           0
     22851 TIP3     4844     TIP3     H1       HT       0.417000       1.00800           0
     22852 TIP3     4844     TIP3     H2       HT       0.417000       1.00800           0
     22853 TIP3     4845     TIP3     OH2      OT      -0.834000       15.9994           0
     22854 TIP3     4845     TIP3     H1       HT       0.417000       1.00800           0
     22855 TIP3     4845     TIP3     H2       HT       0.417000       1.00800           0
     22856 TIP3     4846     TIP3     OH2      OT      -0.834000       15.9994           0
     22857 TIP3     4846     TIP3     H1       HT       0.417000       1.00800           0
     22858 TIP3     4846     TIP3     H2       HT       0.417000       1.00800           0
     22859 TIP3     4847     TIP3     OH2      OT      -0.834000       15.9994           0
     22860 TIP3     4847     TIP3     H1       HT       0.417000       1.00800           0
     22861 TIP3     4847     TIP3     H2       HT       0.417000       1.00800           0
     22862 TIP3     4848     TIP3     OH2      OT      -0.834000       15.9994           0
     22863 TIP3     4848     TIP3     H1       HT       0.417000       1.00800           0
     22864 TIP3     4848     TIP3     H2       HT       0.417000       1.00800           0
     22865 TIP3     4849     TIP3     OH2      OT      -0.834000       15.9994           0
     22866 TIP3     4849     TIP3     H1       HT       0.417000       1.00800           0
     22867 TIP3     4849     TIP3     H2       HT       0.417000       1.00800           0
     22868 TIP3     4850     TIP3     OH2      OT      -0.834000       15.9994           0
     22869 TIP3     4850     TIP3     H1       HT       0.417000       1.00800           0
     22870 TIP3     4850     TIP3     H2       HT       0.417000       1.00800           0
     22871 TIP3     4851     TIP3     OH2      OT      -0.834000       15.9994           0
     22872 TIP3     4851     TIP3     H1       HT       0.417000       1.00800           0
     22873 TIP3     4851     TIP3     H2       HT       0.417000       1.00800           0
     22874 TIP3     4852     TIP3     OH2      OT      -0.834000       15.9994           0
     22875 TIP3     4852     TIP3     H1       HT       0.417000       1.00800           0
     22876 TIP3     4852     TIP3     H2       HT       0.417000       1.00800           0
     22877 TIP3     4853     TIP3     OH2      OT      -0.834000       15.9994           0
     22878 TIP3     4853     TIP3     H1       HT       0.417000       1.00800           0
     22879 TIP3     4853     TIP3     H2       HT       0.417000       1.00800           0
     22880 TIP3     4854     TIP3     OH2      OT      -0.834000       15.9994           0
     22881 TIP3     4854     TIP3     H1       HT       0.417000       1.00800           0
     22882 TIP3     4854     TIP3     H2       HT       0.417000       1.00800           0
     22883 TIP3     4855     TIP3     OH2      OT      -0.834000       15.9994           0
     22884 TIP3     4855     TIP3     H1       HT       0.417000       1.00800           0
     22885 TIP3     4855     TIP3     H2       HT       0.417000       1.00800           0
     22886 TIP3     4856     TIP3     OH2      OT      -0.834000       15.9994           0
     22887 TIP3     4856     TIP3     H1       HT       0.417000       1.00800           0
     22888 TIP3     4856     TIP3     H2       HT       0.417000       1.00800           0
     22889 TIP3     4857     TIP3     OH2      OT      -0.834000       15.9994           0
     22890 TIP3     4857     TIP3     H1       HT       0.417000       1.00800           0
     22891 TIP3     4857     TIP3     H2       HT       0.417000       1.00800           0
     22892 TIP3     4858     TIP3     OH2      OT      -0.834000       15.9994           0
     22893 TIP3     4858     TIP3     H1       HT       0.417000       1.00800           0
     22894 TIP3     4858     TIP3     H2       HT       0.417000       1.00800           0
     22895 TIP3     4859     TIP3     OH2      OT      -0.834000       15.9994           0
     22896 TIP3     4859     TIP3     H1       HT       0.417000       1.00800           0
     22897 TIP3     4859     TIP3     H2       HT       0.417000       1.00800           0
     22898 TIP3     4860     TIP3     OH2      OT      -0.834000       15.9994           0
     22899 TIP3     4860     TIP3     H1       HT       0.417000       1.00800           0
     22900 TIP3     4860     TIP3     H2       HT       0.417000       1.00800           0
     22901 TIP3     4861     TIP3     OH2      OT      -0.834000       15.9994           0
     22902 TIP3     4861     TIP3     H1       HT       0.417000       1.00800           0
     22903 TIP3     4861     TIP3     H2       HT       0.417000       1.00800           0
     22904 TIP3     4862     TIP3     OH2      OT      -0.834000       15.9994           0
     22905 TIP3     4862     TIP3     H1       HT       0.417000       1.00800           0
     22906 TIP3     4862     TIP3     H2       HT       0.417000       1.00800           0
     22907 TIP3     4863     TIP3     OH2      OT      -0.834000       15.9994           0
     22908 TIP3     4863     TIP3     H1       HT       0.417000       1.00800           0
     22909 TIP3     4863     TIP3     H2       HT       0.417000       1.00800           0
     22910 TIP3     4864     TIP3     OH2      OT      -0.834000       15.9994           0
     22911 TIP3     4864     TIP3     H1       HT       0.417000       1.00800           0
     22912 TIP3     4864     TIP3     H2       HT       0.417000       1.00800           0
     22913 TIP3     4865     TIP3     OH2      OT      -0.834000       15.9994           0
     22914 TIP3     4865     TIP3     H1       HT       0.417000       1.00800           0
     22915 TIP3     4865     TIP3     H2       HT       0.417000       1.00800           0
     22916 TIP3     4866     TIP3     OH2      OT      -0.834000       15.9994           0
     22917 TIP3     4866     TIP3     H1       HT       0.417000       1.00800           0
     22918 TIP3     4866     TIP3     H2       HT       0.417000       1.00800           0
     22919 TIP3     4867     TIP3     OH2      OT      -0.834000       15.9994           0
     22920 TIP3     4867     TIP3     H1       HT       0.417000       1.00800           0
     22921 TIP3     4867     TIP3     H2       HT       0.417000       1.00800           0
     22922 TIP3     4868     TIP3     OH2      OT      -0.834000       15.9994           0
     22923 TIP3     4868     TIP3     H1       HT       0.417000       1.00800           0
     22924 TIP3     4868     TIP3     H2       HT       0.417000       1.00800           0
     22925 TIP3     4869     TIP3     OH2      OT      -0.834000       15.9994           0
     22926 TIP3     4869     TIP3     H1       HT       0.417000       1.00800           0
     22927 TIP3     4869     TIP3     H2       HT       0.417000       1.00800           0
     22928 TIP3     4870     TIP3     OH2      OT      -0.834000       15.9994           0
     22929 TIP3     4870     TIP3     H1       HT       0.417000       1.00800           0
     22930 TIP3     4870     TIP3     H2       HT       0.417000       1.00800           0
     22931 TIP3     4871     TIP3     OH2      OT      -0.834000       15.9994           0
     22932 TIP3     4871     TIP3     H1       HT       0.417000       1.00800           0
     22933 TIP3     4871     TIP3     H2       HT       0.417000       1.00800           0
     22934 TIP3     4872     TIP3     OH2      OT      -0.834000       15.9994           0
     22935 TIP3     4872     TIP3     H1       HT       0.417000       1.00800           0
     22936 TIP3     4872     TIP3     H2       HT       0.417000       1.00800           0
     22937 TIP3     4873     TIP3     OH2      OT      -0.834000       15.9994           0
     22938 TIP3     4873     TIP3     H1       HT       0.417000       1.00800           0
     22939 TIP3     4873     TIP3     H2       HT       0.417000       1.00800           0
     22940 TIP3     4874     TIP3     OH2      OT      -0.834000       15.9994           0
     22941 TIP3     4874     TIP3     H1       HT       0.417000       1.00800           0
     22942 TIP3     4874     TIP3     H2       HT       0.417000       1.00800           0
     22943 TIP3     4875     TIP3     OH2      OT      -0.834000       15.9994           0
     22944 TIP3     4875     TIP3     H1       HT       0.417000       1.00800           0
     22945 TIP3     4875     TIP3     H2       HT       0.417000       1.00800           0
     22946 TIP3     4876     TIP3     OH2      OT      -0.834000       15.9994           0
     22947 TIP3     4876     TIP3     H1       HT       0.417000       1.00800           0
     22948 TIP3     4876     TIP3     H2       HT       0.417000       1.00800           0
     22949 TIP3     4877     TIP3     OH2      OT      -0.834000       15.9994           0
     22950 TIP3     4877     TIP3     H1       HT       0.417000       1.00800           0
     22951 TIP3     4877     TIP3     H2       HT       0.417000       1.00800           0
     22952 TIP3     4878     TIP3     OH2      OT      -0.834000       15.9994           0
     22953 TIP3     4878     TIP3     H1       HT       0.417000       1.00800           0
     22954 TIP3     4878     TIP3     H2       HT       0.417000       1.00800           0
     22955 TIP3     4879     TIP3     OH2      OT      -0.834000       15.9994           0
     22956 TIP3     4879     TIP3     H1       HT       0.417000       1.00800           0
     22957 TIP3     4879     TIP3     H2       HT       0.417000       1.00800           0
     22958 TIP3     4880     TIP3     OH2      OT      -0.834000       15.9994           0
     22959 TIP3     4880     TIP3     H1       HT       0.417000       1.00800           0
     22960 TIP3     4880     TIP3     H2       HT       0.417000       1.00800           0
     22961 TIP3     4881     TIP3     OH2      OT      -0.834000       15.9994           0
     22962 TIP3     4881     TIP3     H1       HT       0.417000       1.00800           0
     22963 TIP3     4881     TIP3     H2       HT       0.417000       1.00800           0
     22964 TIP3     4882     TIP3     OH2      OT      -0.834000       15.9994           0
     22965 TIP3     4882     TIP3     H1       HT       0.417000       1.00800           0
     22966 TIP3     4882     TIP3     H2       HT       0.417000       1.00800           0
     22967 TIP3     4883     TIP3     OH2      OT      -0.834000       15.9994           0
     22968 TIP3     4883     TIP3     H1       HT       0.417000       1.00800           0
     22969 TIP3     4883     TIP3     H2       HT       0.417000       1.00800           0
     22970 TIP3     4884     TIP3     OH2      OT      -0.834000       15.9994           0
     22971 TIP3     4884     TIP3     H1       HT       0.417000       1.00800           0
     22972 TIP3     4884     TIP3     H2       HT       0.417000       1.00800           0
     22973 TIP3     4885     TIP3     OH2      OT      -0.834000       15.9994           0
     22974 TIP3     4885     TIP3     H1       HT       0.417000       1.00800           0
     22975 TIP3     4885     TIP3     H2       HT       0.417000       1.00800           0
     22976 TIP3     4886     TIP3     OH2      OT      -0.834000       15.9994           0
     22977 TIP3     4886     TIP3     H1       HT       0.417000       1.00800           0
     22978 TIP3     4886     TIP3     H2       HT       0.417000       1.00800           0
     22979 TIP3     4887     TIP3     OH2      OT      -0.834000       15.9994           0
     22980 TIP3     4887     TIP3     H1       HT       0.417000       1.00800           0
     22981 TIP3     4887     TIP3     H2       HT       0.417000       1.00800           0
     22982 TIP3     4888     TIP3     OH2      OT      -0.834000       15.9994           0
     22983 TIP3     4888     TIP3     H1       HT       0.417000       1.00800           0
     22984 TIP3     4888     TIP3     H2       HT       0.417000       1.00800           0
     22985 TIP3     4889     TIP3     OH2      OT      -0.834000       15.9994           0
     22986 TIP3     4889     TIP3     H1       HT       0.417000       1.00800           0
     22987 TIP3     4889     TIP3     H2       HT       0.417000       1.00800           0
     22988 TIP3     4890     TIP3     OH2      OT      -0.834000       15.9994           0
     22989 TIP3     4890     TIP3     H1       HT       0.417000       1.00800           0
     22990 TIP3     4890     TIP3     H2       HT       0.417000       1.00800           0
     22991 TIP3     4891     TIP3     OH2      OT      -0.834000       15.9994           0
     22992 TIP3     4891     TIP3     H1       HT       0.417000       1.00800           0
     22993 TIP3     4891     TIP3     H2       HT       0.417000       1.00800           0
     22994 TIP3     4892     TIP3     OH2      OT      -0.834000       15.9994           0
     22995 TIP3     4892     TIP3     H1       HT       0.417000       1.00800           0
     22996 TIP3     4892     TIP3     H2       HT       0.417000       1.00800           0
     22997 TIP3     4893     TIP3     OH2      OT      -0.834000       15.9994           0
     22998 TIP3     4893     TIP3     H1       HT       0.417000       1.00800           0
     22999 TIP3     4893     TIP3     H2       HT       0.417000       1.00800           0
     23000 TIP3     4894     TIP3     OH2      OT      -0.834000       15.9994           0
     23001 TIP3     4894     TIP3     H1       HT       0.417000       1.00800           0
     23002 TIP3     4894     TIP3     H2       HT       0.417000       1.00800           0
     23003 TIP3     4895     TIP3     OH2      OT      -0.834000       15.9994           0
     23004 TIP3     4895     TIP3     H1       HT       0.417000       1.00800           0
     23005 TIP3     4895     TIP3     H2       HT       0.417000       1.00800           0
     23006 TIP3     4896     TIP3     OH2      OT      -0.834000       15.9994           0
     23007 TIP3     4896     TIP3     H1       HT       0.417000       1.00800           0
     23008 TIP3     4896     TIP3     H2       HT       0.417000       1.00800           0
     23009 TIP3     4897     TIP3     OH2      OT      -0.834000       15.9994           0
     23010 TIP3     4897     TIP3     H1       HT       0.417000       1.00800           0
     23011 TIP3     4897     TIP3     H2       HT       0.417000       1.00800           0
     23012 TIP3     4898     TIP3     OH2      OT      -0.834000       15.9994           0
     23013 TIP3     4898     TIP3     H1       HT       0.417000       1.00800           0
     23014 TIP3     4898     TIP3     H2       HT       0.417000       1.00800           0
     23015 TIP3     4899     TIP3     OH2      OT      -0.834000       15.9994           0
     23016 TIP3     4899     TIP3     H1       HT       0.417000       1.00800           0
     23017 TIP3     4899     TIP3     H2       HT       0.417000       1.00800           0
     23018 TIP3     4900     TIP3     OH2      OT      -0.834000       15.9994           0
     23019 TIP3     4900     TIP3     H1       HT       0.417000       1.00800           0
     23020 TIP3     4900     TIP3     H2       HT       0.417000       1.00800           0
     23021 TIP3     4901     TIP3     OH2      OT      -0.834000       15.9994           0
     23022 TIP3     4901     TIP3     H1       HT       0.417000       1.00800           0
     23023 TIP3     4901     TIP3     H2       HT       0.417000       1.00800           0
     23024 TIP3     4902     TIP3     OH2      OT      -0.834000       15.9994           0
     23025 TIP3     4902     TIP3     H1       HT       0.417000       1.00800           0
     23026 TIP3     4902     TIP3     H2       HT       0.417000       1.00800           0
     23027 TIP3     4903     TIP3     OH2      OT      -0.834000       15.9994           0
     23028 TIP3     4903     TIP3     H1       HT       0.417000       1.00800           0
     23029 TIP3     4903     TIP3     H2       HT       0.417000       1.00800           0
     23030 TIP3     4904     TIP3     OH2      OT      -0.834000       15.9994           0
     23031 TIP3     4904     TIP3     H1       HT       0.417000       1.00800           0
     23032 TIP3     4904     TIP3     H2       HT       0.417000       1.00800           0
     23033 TIP3     4905     TIP3     OH2      OT      -0.834000       15.9994           0
     23034 TIP3     4905     TIP3     H1       HT       0.417000       1.00800           0
     23035 TIP3     4905     TIP3     H2       HT       0.417000       1.00800           0
     23036 TIP3     4906     TIP3     OH2      OT      -0.834000       15.9994           0
     23037 TIP3     4906     TIP3     H1       HT       0.417000       1.00800           0
     23038 TIP3     4906     TIP3     H2       HT       0.417000       1.00800           0
     23039 TIP3     4907     TIP3     OH2      OT      -0.834000       15.9994           0
     23040 TIP3     4907     TIP3     H1       HT       0.417000       1.00800           0
     23041 TIP3     4907     TIP3     H2       HT       0.417000       1.00800           0
     23042 TIP3     4908     TIP3     OH2      OT      -0.834000       15.9994           0
     23043 TIP3     4908     TIP3     H1       HT       0.417000       1.00800           0
     23044 TIP3     4908     TIP3     H2       HT       0.417000       1.00800           0
     23045 TIP3     4909     TIP3     OH2      OT      -0.834000       15.9994           0
     23046 TIP3     4909     TIP3     H1       HT       0.417000       1.00800           0
     23047 TIP3     4909     TIP3     H2       HT       0.417000       1.00800           0
     23048 TIP3     4910     TIP3     OH2      OT      -0.834000       15.9994           0
     23049 TIP3     4910     TIP3     H1       HT       0.417000       1.00800           0
     23050 TIP3     4910     TIP3     H2       HT       0.417000       1.00800           0
     23051 TIP3     4911     TIP3     OH2      OT      -0.834000       15.9994           0
     23052 TIP3     4911     TIP3     H1       HT       0.417000       1.00800           0
     23053 TIP3     4911     TIP3     H2       HT       0.417000       1.00800           0
     23054 TIP3     4912     TIP3     OH2      OT      -0.834000       15.9994           0
     23055 TIP3     4912     TIP3     H1       HT       0.417000       1.00800           0
     23056 TIP3     4912     TIP3     H2       HT       0.417000       1.00800           0
     23057 TIP3     4913     TIP3     OH2      OT      -0.834000       15.9994           0
     23058 TIP3     4913     TIP3     H1       HT       0.417000       1.00800           0
     23059 TIP3     4913     TIP3     H2       HT       0.417000       1.00800           0
     23060 TIP3     4914     TIP3     OH2      OT      -0.834000       15.9994           0
     23061 TIP3     4914     TIP3     H1       HT       0.417000       1.00800           0
     23062 TIP3     4914     TIP3     H2       HT       0.417000       1.00800           0
     23063 TIP3     4915     TIP3     OH2      OT      -0.834000       15.9994           0
     23064 TIP3     4915     TIP3     H1       HT       0.417000       1.00800           0
     23065 TIP3     4915     TIP3     H2       HT       0.417000       1.00800           0
     23066 TIP3     4916     TIP3     OH2      OT      -0.834000       15.9994           0
     23067 TIP3     4916     TIP3     H1       HT       0.417000       1.00800           0
     23068 TIP3     4916     TIP3     H2       HT       0.417000       1.00800           0
     23069 TIP3     4917     TIP3     OH2      OT      -0.834000       15.9994           0
     23070 TIP3     4917     TIP3     H1       HT       0.417000       1.00800           0
     23071 TIP3     4917     TIP3     H2       HT       0.417000       1.00800           0
     23072 TIP3     4918     TIP3     OH2      OT      -0.834000       15.9994           0
     23073 TIP3     4918     TIP3     H1       HT       0.417000       1.00800           0
     23074 TIP3     4918     TIP3     H2       HT       0.417000       1.00800           0
     23075 TIP3     4919     TIP3     OH2      OT      -0.834000       15.9994           0
     23076 TIP3     4919     TIP3     H1       HT       0.417000       1.00800           0
     23077 TIP3     4919     TIP3     H2       HT       0.417000       1.00800           0
     23078 TIP3     4920     TIP3     OH2      OT      -0.834000       15.9994           0
     23079 TIP3     4920     TIP3     H1       HT       0.417000       1.00800           0
     23080 TIP3     4920     TIP3     H2       HT       0.417000       1.00800           0
     23081 TIP3     4921     TIP3     OH2      OT      -0.834000       15.9994           0
     23082 TIP3     4921     TIP3     H1       HT       0.417000       1.00800           0
     23083 TIP3     4921     TIP3     H2       HT       0.417000       1.00800           0
     23084 TIP3     4922     TIP3     OH2      OT      -0.834000       15.9994           0
     23085 TIP3     4922     TIP3     H1       HT       0.417000       1.00800           0
     23086 TIP3     4922     TIP3     H2       HT       0.417000       1.00800           0
     23087 TIP3     4923     TIP3     OH2      OT      -0.834000       15.9994           0
     23088 TIP3     4923     TIP3     H1       HT       0.417000       1.00800           0
     23089 TIP3     4923     TIP3     H2       HT       0.417000       1.00800           0
     23090 TIP3     4924     TIP3     OH2      OT      -0.834000       15.9994           0
     23091 TIP3     4924     TIP3     H1       HT       0.417000       1.00800           0
     23092 TIP3     4924     TIP3     H2       HT       0.417000       1.00800           0
     23093 TIP3     4925     TIP3     OH2      OT      -0.834000       15.9994           0
     23094 TIP3     4925     TIP3     H1       HT       0.417000       1.00800           0
     23095 TIP3     4925     TIP3     H2       HT       0.417000       1.00800           0
     23096 TIP3     4926     TIP3     OH2      OT      -0.834000       15.9994           0
     23097 TIP3     4926     TIP3     H1       HT       0.417000       1.00800           0
     23098 TIP3     4926     TIP3     H2       HT       0.417000       1.00800           0
     23099 TIP3     4927     TIP3     OH2      OT      -0.834000       15.9994           0
     23100 TIP3     4927     TIP3     H1       HT       0.417000       1.00800           0
     23101 TIP3     4927     TIP3     H2       HT       0.417000       1.00800           0
     23102 TIP3     4928     TIP3     OH2      OT      -0.834000       15.9994           0
     23103 TIP3     4928     TIP3     H1       HT       0.417000       1.00800           0
     23104 TIP3     4928     TIP3     H2       HT       0.417000       1.00800           0
     23105 TIP3     4929     TIP3     OH2      OT      -0.834000       15.9994           0
     23106 TIP3     4929     TIP3     H1       HT       0.417000       1.00800           0
     23107 TIP3     4929     TIP3     H2       HT       0.417000       1.00800           0
     23108 TIP3     4930     TIP3     OH2      OT      -0.834000       15.9994           0
     23109 TIP3     4930     TIP3     H1       HT       0.417000       1.00800           0
     23110 TIP3     4930     TIP3     H2       HT       0.417000       1.00800           0
     23111 TIP3     4931     TIP3     OH2      OT      -0.834000       15.9994           0
     23112 TIP3     4931     TIP3     H1       HT       0.417000       1.00800           0
     23113 TIP3     4931     TIP3     H2       HT       0.417000       1.00800           0
     23114 TIP3     4932     TIP3     OH2      OT      -0.834000       15.9994           0
     23115 TIP3     4932     TIP3     H1       HT       0.417000       1.00800           0
     23116 TIP3     4932     TIP3     H2       HT       0.417000       1.00800           0
     23117 TIP3     4933     TIP3     OH2      OT      -0.834000       15.9994           0
     23118 TIP3     4933     TIP3     H1       HT       0.417000       1.00800           0
     23119 TIP3     4933     TIP3     H2       HT       0.417000       1.00800           0
     23120 TIP3     4934     TIP3     OH2      OT      -0.834000       15.9994           0
     23121 TIP3     4934     TIP3     H1       HT       0.417000       1.00800           0
     23122 TIP3     4934     TIP3     H2       HT       0.417000       1.00800           0
     23123 TIP3     4935     TIP3     OH2      OT      -0.834000       15.9994           0
     23124 TIP3     4935     TIP3     H1       HT       0.417000       1.00800           0
     23125 TIP3     4935     TIP3     H2       HT       0.417000       1.00800           0
     23126 TIP3     4936     TIP3     OH2      OT      -0.834000       15.9994           0
     23127 TIP3     4936     TIP3     H1       HT       0.417000       1.00800           0
     23128 TIP3     4936     TIP3     H2       HT       0.417000       1.00800           0
     23129 TIP3     4937     TIP3     OH2      OT      -0.834000       15.9994           0
     23130 TIP3     4937     TIP3     H1       HT       0.417000       1.00800           0
     23131 TIP3     4937     TIP3     H2       HT       0.417000       1.00800           0
     23132 TIP3     4938     TIP3     OH2      OT      -0.834000       15.9994           0
     23133 TIP3     4938     TIP3     H1       HT       0.417000       1.00800           0
     23134 TIP3     4938     TIP3     H2       HT       0.417000       1.00800           0
     23135 TIP3     4939     TIP3     OH2      OT      -0.834000       15.9994           0
     23136 TIP3     4939     TIP3     H1       HT       0.417000       1.00800           0
     23137 TIP3     4939     TIP3     H2       HT       0.417000       1.00800           0
     23138 TIP3     4940     TIP3     OH2      OT      -0.834000       15.9994           0
     23139 TIP3     4940     TIP3     H1       HT       0.417000       1.00800           0
     23140 TIP3     4940     TIP3     H2       HT       0.417000       1.00800           0
     23141 TIP3     4941     TIP3     OH2      OT      -0.834000       15.9994           0
     23142 TIP3     4941     TIP3     H1       HT       0.417000       1.00800           0
     23143 TIP3     4941     TIP3     H2       HT       0.417000       1.00800           0
     23144 TIP3     4942     TIP3     OH2      OT      -0.834000       15.9994           0
     23145 TIP3     4942     TIP3     H1       HT       0.417000       1.00800           0
     23146 TIP3     4942     TIP3     H2       HT       0.417000       1.00800           0
     23147 TIP3     4943     TIP3     OH2      OT      -0.834000       15.9994           0
     23148 TIP3     4943     TIP3     H1       HT       0.417000       1.00800           0
     23149 TIP3     4943     TIP3     H2       HT       0.417000       1.00800           0
     23150 TIP3     4944     TIP3     OH2      OT      -0.834000       15.9994           0
     23151 TIP3     4944     TIP3     H1       HT       0.417000       1.00800           0
     23152 TIP3     4944     TIP3     H2       HT       0.417000       1.00800           0
     23153 TIP3     4945     TIP3     OH2      OT      -0.834000       15.9994           0
     23154 TIP3     4945     TIP3     H1       HT       0.417000       1.00800           0
     23155 TIP3     4945     TIP3     H2       HT       0.417000       1.00800           0
     23156 TIP3     4946     TIP3     OH2      OT      -0.834000       15.9994           0
     23157 TIP3     4946     TIP3     H1       HT       0.417000       1.00800           0
     23158 TIP3     4946     TIP3     H2       HT       0.417000       1.00800           0
     23159 TIP3     4947     TIP3     OH2      OT      -0.834000       15.9994           0
     23160 TIP3     4947     TIP3     H1       HT       0.417000       1.00800           0
     23161 TIP3     4947     TIP3     H2       HT       0.417000       1.00800           0
     23162 TIP3     4948     TIP3     OH2      OT      -0.834000       15.9994           0
     23163 TIP3     4948     TIP3     H1       HT       0.417000       1.00800           0
     23164 TIP3     4948     TIP3     H2       HT       0.417000       1.00800           0
     23165 TIP3     4949     TIP3     OH2      OT      -0.834000       15.9994           0
     23166 TIP3     4949     TIP3     H1       HT       0.417000       1.00800           0
     23167 TIP3     4949     TIP3     H2       HT       0.417000       1.00800           0
     23168 TIP3     4950     TIP3     OH2      OT      -0.834000       15.9994           0
     23169 TIP3     4950     TIP3     H1       HT       0.417000       1.00800           0
     23170 TIP3     4950     TIP3     H2       HT       0.417000       1.00800           0
     23171 TIP3     4951     TIP3     OH2      OT      -0.834000       15.9994           0
     23172 TIP3     4951     TIP3     H1       HT       0.417000       1.00800           0
     23173 TIP3     4951     TIP3     H2       HT       0.417000       1.00800           0
     23174 TIP3     4952     TIP3     OH2      OT      -0.834000       15.9994           0
     23175 TIP3     4952     TIP3     H1       HT       0.417000       1.00800           0
     23176 TIP3     4952     TIP3     H2       HT       0.417000       1.00800           0
     23177 TIP3     4953     TIP3     OH2      OT      -0.834000       15.9994           0
     23178 TIP3     4953     TIP3     H1       HT       0.417000       1.00800           0
     23179 TIP3     4953     TIP3     H2       HT       0.417000       1.00800           0
     23180 TIP3     4954     TIP3     OH2      OT      -0.834000       15.9994           0
     23181 TIP3     4954     TIP3     H1       HT       0.417000       1.00800           0
     23182 TIP3     4954     TIP3     H2       HT       0.417000       1.00800           0
     23183 TIP3     4955     TIP3     OH2      OT      -0.834000       15.9994           0
     23184 TIP3     4955     TIP3     H1       HT       0.417000       1.00800           0
     23185 TIP3     4955     TIP3     H2       HT       0.417000       1.00800           0
     23186 TIP3     4956     TIP3     OH2      OT      -0.834000       15.9994           0
     23187 TIP3     4956     TIP3     H1       HT       0.417000       1.00800           0
     23188 TIP3     4956     TIP3     H2       HT       0.417000       1.00800           0
     23189 TIP3     4957     TIP3     OH2      OT      -0.834000       15.9994           0
     23190 TIP3     4957     TIP3     H1       HT       0.417000       1.00800           0
     23191 TIP3     4957     TIP3     H2       HT       0.417000       1.00800           0
     23192 TIP3     4958     TIP3     OH2      OT      -0.834000       15.9994           0
     23193 TIP3     4958     TIP3     H1       HT       0.417000       1.00800           0
     23194 TIP3     4958     TIP3     H2       HT       0.417000       1.00800           0
     23195 TIP3     4959     TIP3     OH2      OT      -0.834000       15.9994           0
     23196 TIP3     4959     TIP3     H1       HT       0.417000       1.00800           0
     23197 TIP3     4959     TIP3     H2       HT       0.417000       1.00800           0
     23198 TIP3     4960     TIP3     OH2      OT      -0.834000       15.9994           0
     23199 TIP3     4960     TIP3     H1       HT       0.417000       1.00800           0
     23200 TIP3     4960     TIP3     H2       HT       0.417000       1.00800           0
     23201 TIP3     4961     TIP3     OH2      OT      -0.834000       15.9994           0
     23202 TIP3     4961     TIP3     H1       HT       0.417000       1.00800           0
     23203 TIP3     4961     TIP3     H2       HT       0.417000       1.00800           0
     23204 TIP3     4962     TIP3     OH2      OT      -0.834000       15.9994           0
     23205 TIP3     4962     TIP3     H1       HT       0.417000       1.00800           0
     23206 TIP3     4962     TIP3     H2       HT       0.417000       1.00800           0
     23207 TIP3     4963     TIP3     OH2      OT      -0.834000       15.9994           0
     23208 TIP3     4963     TIP3     H1       HT       0.417000       1.00800           0
     23209 TIP3     4963     TIP3     H2       HT       0.417000       1.00800           0
     23210 TIP3     4964     TIP3     OH2      OT      -0.834000       15.9994           0
     23211 TIP3     4964     TIP3     H1       HT       0.417000       1.00800           0
     23212 TIP3     4964     TIP3     H2       HT       0.417000       1.00800           0
     23213 TIP3     4965     TIP3     OH2      OT      -0.834000       15.9994           0
     23214 TIP3     4965     TIP3     H1       HT       0.417000       1.00800           0
     23215 TIP3     4965     TIP3     H2       HT       0.417000       1.00800           0
     23216 TIP3     4966     TIP3     OH2      OT      -0.834000       15.9994           0
     23217 TIP3     4966     TIP3     H1       HT       0.417000       1.00800           0
     23218 TIP3     4966     TIP3     H2       HT       0.417000       1.00800           0
     23219 TIP3     4967     TIP3     OH2      OT      -0.834000       15.9994           0
     23220 TIP3     4967     TIP3     H1       HT       0.417000       1.00800           0
     23221 TIP3     4967     TIP3     H2       HT       0.417000       1.00800           0
     23222 TIP3     4968     TIP3     OH2      OT      -0.834000       15.9994           0
     23223 TIP3     4968     TIP3     H1       HT       0.417000       1.00800           0
     23224 TIP3     4968     TIP3     H2       HT       0.417000       1.00800           0
     23225 TIP3     4969     TIP3     OH2      OT      -0.834000       15.9994           0
     23226 TIP3     4969     TIP3     H1       HT       0.417000       1.00800           0
     23227 TIP3     4969     TIP3     H2       HT       0.417000       1.00800           0
     23228 TIP3     4970     TIP3     OH2      OT      -0.834000       15.9994           0
     23229 TIP3     4970     TIP3     H1       HT       0.417000       1.00800           0
     23230 TIP3     4970     TIP3     H2       HT       0.417000       1.00800           0
     23231 TIP3     4971     TIP3     OH2      OT      -0.834000       15.9994           0
     23232 TIP3     4971     TIP3     H1       HT       0.417000       1.00800           0
     23233 TIP3     4971     TIP3     H2       HT       0.417000       1.00800           0
     23234 TIP3     4972     TIP3     OH2      OT      -0.834000       15.9994           0
     23235 TIP3     4972     TIP3     H1       HT       0.417000       1.00800           0
     23236 TIP3     4972     TIP3     H2       HT       0.417000       1.00800           0
     23237 TIP3     4973     TIP3     OH2      OT      -0.834000       15.9994           0
     23238 TIP3     4973     TIP3     H1       HT       0.417000       1.00800           0
     23239 TIP3     4973     TIP3     H2       HT       0.417000       1.00800           0
     23240 TIP3     4974     TIP3     OH2      OT      -0.834000       15.9994           0
     23241 TIP3     4974     TIP3     H1       HT       0.417000       1.00800           0
     23242 TIP3     4974     TIP3     H2       HT       0.417000       1.00800           0
     23243 TIP3     4975     TIP3     OH2      OT      -0.834000       15.9994           0
     23244 TIP3     4975     TIP3     H1       HT       0.417000       1.00800           0
     23245 TIP3     4975     TIP3     H2       HT       0.417000       1.00800           0
     23246 TIP3     4976     TIP3     OH2      OT      -0.834000       15.9994           0
     23247 TIP3     4976     TIP3     H1       HT       0.417000       1.00800           0
     23248 TIP3     4976     TIP3     H2       HT       0.417000       1.00800           0
     23249 TIP3     4977     TIP3     OH2      OT      -0.834000       15.9994           0
     23250 TIP3     4977     TIP3     H1       HT       0.417000       1.00800           0
     23251 TIP3     4977     TIP3     H2       HT       0.417000       1.00800           0
     23252 TIP3     4978     TIP3     OH2      OT      -0.834000       15.9994           0
     23253 TIP3     4978     TIP3     H1       HT       0.417000       1.00800           0
     23254 TIP3     4978     TIP3     H2       HT       0.417000       1.00800           0
     23255 TIP3     4979     TIP3     OH2      OT      -0.834000       15.9994           0
     23256 TIP3     4979     TIP3     H1       HT       0.417000       1.00800           0
     23257 TIP3     4979     TIP3     H2       HT       0.417000       1.00800           0
     23258 TIP3     4980     TIP3     OH2      OT      -0.834000       15.9994           0
     23259 TIP3     4980     TIP3     H1       HT       0.417000       1.00800           0
     23260 TIP3     4980     TIP3     H2       HT       0.417000       1.00800           0
     23261 TIP3     4981     TIP3     OH2      OT      -0.834000       15.9994           0
     23262 TIP3     4981     TIP3     H1       HT       0.417000       1.00800           0
     23263 TIP3     4981     TIP3     H2       HT       0.417000       1.00800           0
     23264 TIP3     4982     TIP3     OH2      OT      -0.834000       15.9994           0
     23265 TIP3     4982     TIP3     H1       HT       0.417000       1.00800           0
     23266 TIP3     4982     TIP3     H2       HT       0.417000       1.00800           0
     23267 TIP3     4983     TIP3     OH2      OT      -0.834000       15.9994           0
     23268 TIP3     4983     TIP3     H1       HT       0.417000       1.00800           0
     23269 TIP3     4983     TIP3     H2       HT       0.417000       1.00800           0
     23270 TIP3     4984     TIP3     OH2      OT      -0.834000       15.9994           0
     23271 TIP3     4984     TIP3     H1       HT       0.417000       1.00800           0
     23272 TIP3     4984     TIP3     H2       HT       0.417000       1.00800           0
     23273 TIP3     4985     TIP3     OH2      OT      -0.834000       15.9994           0
     23274 TIP3     4985     TIP3     H1       HT       0.417000       1.00800           0
     23275 TIP3     4985     TIP3     H2       HT       0.417000       1.00800           0
     23276 TIP3     4986     TIP3     OH2      OT      -0.834000       15.9994           0
     23277 TIP3     4986     TIP3     H1       HT       0.417000       1.00800           0
     23278 TIP3     4986     TIP3     H2       HT       0.417000       1.00800           0
     23279 TIP3     4987     TIP3     OH2      OT      -0.834000       15.9994           0
     23280 TIP3     4987     TIP3     H1       HT       0.417000       1.00800           0
     23281 TIP3     4987     TIP3     H2       HT       0.417000       1.00800           0
     23282 TIP3     4988     TIP3     OH2      OT      -0.834000       15.9994           0
     23283 TIP3     4988     TIP3     H1       HT       0.417000       1.00800           0
     23284 TIP3     4988     TIP3     H2       HT       0.417000       1.00800           0
     23285 TIP3     4989     TIP3     OH2      OT      -0.834000       15.9994           0
     23286 TIP3     4989     TIP3     H1       HT       0.417000       1.00800           0
     23287 TIP3     4989     TIP3     H2       HT       0.417000       1.00800           0
     23288 TIP3     4990     TIP3     OH2      OT      -0.834000       15.9994           0
     23289 TIP3     4990     TIP3     H1       HT       0.417000       1.00800           0
     23290 TIP3     4990     TIP3     H2       HT       0.417000       1.00800           0
     23291 TIP3     4991     TIP3     OH2      OT      -0.834000       15.9994           0
     23292 TIP3     4991     TIP3     H1       HT       0.417000       1.00800           0
     23293 TIP3     4991     TIP3     H2       HT       0.417000       1.00800           0
     23294 TIP3     4992     TIP3     OH2      OT      -0.834000       15.9994           0
     23295 TIP3     4992     TIP3     H1       HT       0.417000       1.00800           0
     23296 TIP3     4992     TIP3     H2       HT       0.417000       1.00800           0
     23297 TIP3     4993     TIP3     OH2      OT      -0.834000       15.9994           0
     23298 TIP3     4993     TIP3     H1       HT       0.417000       1.00800           0
     23299 TIP3     4993     TIP3     H2       HT       0.417000       1.00800           0
     23300 TIP3     4994     TIP3     OH2      OT      -0.834000       15.9994           0
     23301 TIP3     4994     TIP3     H1       HT       0.417000       1.00800           0
     23302 TIP3     4994     TIP3     H2       HT       0.417000       1.00800           0
     23303 TIP3     4995     TIP3     OH2      OT      -0.834000       15.9994           0
     23304 TIP3     4995     TIP3     H1       HT       0.417000       1.00800           0
     23305 TIP3     4995     TIP3     H2       HT       0.417000       1.00800           0
     23306 TIP3     4996     TIP3     OH2      OT      -0.834000       15.9994           0
     23307 TIP3     4996     TIP3     H1       HT       0.417000       1.00800           0
     23308 TIP3     4996     TIP3     H2       HT       0.417000       1.00800           0
     23309 TIP3     4997     TIP3     OH2      OT      -0.834000       15.9994           0
     23310 TIP3     4997     TIP3     H1       HT       0.417000       1.00800           0
     23311 TIP3     4997     TIP3     H2       HT       0.417000       1.00800           0
     23312 TIP3     4998     TIP3     OH2      OT      -0.834000       15.9994           0
     23313 TIP3     4998     TIP3     H1       HT       0.417000       1.00800           0
     23314 TIP3     4998     TIP3     H2       HT       0.417000       1.00800           0
     23315 TIP3     4999     TIP3     OH2      OT      -0.834000       15.9994           0
     23316 TIP3     4999     TIP3     H1       HT       0.417000       1.00800           0
     23317 TIP3     4999     TIP3     H2       HT       0.417000       1.00800           0
     23318 TIP3     5000     TIP3     OH2      OT      -0.834000       15.9994           0
     23319 TIP3     5000     TIP3     H1       HT       0.417000       1.00800           0
     23320 TIP3     5000     TIP3     H2       HT       0.417000       1.00800           0
     23321 TIP3     5001     TIP3     OH2      OT      -0.834000       15.9994           0
     23322 TIP3     5001     TIP3     H1       HT       0.417000       1.00800           0
     23323 TIP3     5001     TIP3     H2       HT       0.417000       1.00800           0
     23324 TIP3     5002     TIP3     OH2      OT      -0.834000       15.9994           0
     23325 TIP3     5002     TIP3     H1       HT       0.417000       1.00800           0
     23326 TIP3     5002     TIP3     H2       HT       0.417000       1.00800           0
     23327 TIP3     5003     TIP3     OH2      OT      -0.834000       15.9994           0
     23328 TIP3     5003     TIP3     H1       HT       0.417000       1.00800           0
     23329 TIP3     5003     TIP3     H2       HT       0.417000       1.00800           0
     23330 TIP3     5004     TIP3     OH2      OT      -0.834000       15.9994           0
     23331 TIP3     5004     TIP3     H1       HT       0.417000       1.00800           0
     23332 TIP3     5004     TIP3     H2       HT       0.417000       1.00800           0
     23333 TIP3     5005     TIP3     OH2      OT      -0.834000       15.9994           0
     23334 TIP3     5005     TIP3     H1       HT       0.417000       1.00800           0
     23335 TIP3     5005     TIP3     H2       HT       0.417000       1.00800           0
     23336 TIP3     5006     TIP3     OH2      OT      -0.834000       15.9994           0
     23337 TIP3     5006     TIP3     H1       HT       0.417000       1.00800           0
     23338 TIP3     5006     TIP3     H2       HT       0.417000       1.00800           0
     23339 TIP3     5007     TIP3     OH2      OT      -0.834000       15.9994           0
     23340 TIP3     5007     TIP3     H1       HT       0.417000       1.00800           0
     23341 TIP3     5007     TIP3     H2       HT       0.417000       1.00800           0
     23342 TIP3     5008     TIP3     OH2      OT      -0.834000       15.9994           0
     23343 TIP3     5008     TIP3     H1       HT       0.417000       1.00800           0
     23344 TIP3     5008     TIP3     H2       HT       0.417000       1.00800           0
     23345 TIP3     5009     TIP3     OH2      OT      -0.834000       15.9994           0
     23346 TIP3     5009     TIP3     H1       HT       0.417000       1.00800           0
     23347 TIP3     5009     TIP3     H2       HT       0.417000       1.00800           0
     23348 TIP3     5010     TIP3     OH2      OT      -0.834000       15.9994           0
     23349 TIP3     5010     TIP3     H1       HT       0.417000       1.00800           0
     23350 TIP3     5010     TIP3     H2       HT       0.417000       1.00800           0
     23351 TIP3     5011     TIP3     OH2      OT      -0.834000       15.9994           0
     23352 TIP3     5011     TIP3     H1       HT       0.417000       1.00800           0
     23353 TIP3     5011     TIP3     H2       HT       0.417000       1.00800           0
     23354 TIP3     5012     TIP3     OH2      OT      -0.834000       15.9994           0
     23355 TIP3     5012     TIP3     H1       HT       0.417000       1.00800           0
     23356 TIP3     5012     TIP3     H2       HT       0.417000       1.00800           0
     23357 TIP3     5013     TIP3     OH2      OT      -0.834000       15.9994           0
     23358 TIP3     5013     TIP3     H1       HT       0.417000       1.00800           0
     23359 TIP3     5013     TIP3     H2       HT       0.417000       1.00800           0
     23360 TIP3     5014     TIP3     OH2      OT      -0.834000       15.9994           0
     23361 TIP3     5014     TIP3     H1       HT       0.417000       1.00800           0
     23362 TIP3     5014     TIP3     H2       HT       0.417000       1.00800           0
     23363 TIP3     5015     TIP3     OH2      OT      -0.834000       15.9994           0
     23364 TIP3     5015     TIP3     H1       HT       0.417000       1.00800           0
     23365 TIP3     5015     TIP3     H2       HT       0.417000       1.00800           0
     23366 TIP3     5016     TIP3     OH2      OT      -0.834000       15.9994           0
     23367 TIP3     5016     TIP3     H1       HT       0.417000       1.00800           0
     23368 TIP3     5016     TIP3     H2       HT       0.417000       1.00800           0
     23369 TIP3     5017     TIP3     OH2      OT      -0.834000       15.9994           0
     23370 TIP3     5017     TIP3     H1       HT       0.417000       1.00800           0
     23371 TIP3     5017     TIP3     H2       HT       0.417000       1.00800           0
     23372 TIP3     5018     TIP3     OH2      OT      -0.834000       15.9994           0
     23373 TIP3     5018     TIP3     H1       HT       0.417000       1.00800           0
     23374 TIP3     5018     TIP3     H2       HT       0.417000       1.00800           0
     23375 TIP3     5019     TIP3     OH2      OT      -0.834000       15.9994           0
     23376 TIP3     5019     TIP3     H1       HT       0.417000       1.00800           0
     23377 TIP3     5019     TIP3     H2       HT       0.417000       1.00800           0
     23378 TIP3     5020     TIP3     OH2      OT      -0.834000       15.9994           0
     23379 TIP3     5020     TIP3     H1       HT       0.417000       1.00800           0
     23380 TIP3     5020     TIP3     H2       HT       0.417000       1.00800           0
     23381 TIP3     5021     TIP3     OH2      OT      -0.834000       15.9994           0
     23382 TIP3     5021     TIP3     H1       HT       0.417000       1.00800           0
     23383 TIP3     5021     TIP3     H2       HT       0.417000       1.00800           0
     23384 TIP3     5022     TIP3     OH2      OT      -0.834000       15.9994           0
     23385 TIP3     5022     TIP3     H1       HT       0.417000       1.00800           0
     23386 TIP3     5022     TIP3     H2       HT       0.417000       1.00800           0
     23387 TIP3     5023     TIP3     OH2      OT      -0.834000       15.9994           0
     23388 TIP3     5023     TIP3     H1       HT       0.417000       1.00800           0
     23389 TIP3     5023     TIP3     H2       HT       0.417000       1.00800           0
     23390 TIP3     5024     TIP3     OH2      OT      -0.834000       15.9994           0
     23391 TIP3     5024     TIP3     H1       HT       0.417000       1.00800           0
     23392 TIP3     5024     TIP3     H2       HT       0.417000       1.00800           0
     23393 TIP3     5025     TIP3     OH2      OT      -0.834000       15.9994           0
     23394 TIP3     5025     TIP3     H1       HT       0.417000       1.00800           0
     23395 TIP3     5025     TIP3     H2       HT       0.417000       1.00800           0
     23396 TIP3     5026     TIP3     OH2      OT      -0.834000       15.9994           0
     23397 TIP3     5026     TIP3     H1       HT       0.417000       1.00800           0
     23398 TIP3     5026     TIP3     H2       HT       0.417000       1.00800           0
     23399 TIP3     5027     TIP3     OH2      OT      -0.834000       15.9994           0
     23400 TIP3     5027     TIP3     H1       HT       0.417000       1.00800           0
     23401 TIP3     5027     TIP3     H2       HT       0.417000       1.00800           0
     23402 TIP3     5028     TIP3     OH2      OT      -0.834000       15.9994           0
     23403 TIP3     5028     TIP3     H1       HT       0.417000       1.00800           0
     23404 TIP3     5028     TIP3     H2       HT       0.417000       1.00800           0
     23405 TIP3     5029     TIP3     OH2      OT      -0.834000       15.9994           0
     23406 TIP3     5029     TIP3     H1       HT       0.417000       1.00800           0
     23407 TIP3     5029     TIP3     H2       HT       0.417000       1.00800           0
     23408 TIP3     5030     TIP3     OH2      OT      -0.834000       15.9994           0
     23409 TIP3     5030     TIP3     H1       HT       0.417000       1.00800           0
     23410 TIP3     5030     TIP3     H2       HT       0.417000       1.00800           0
     23411 TIP3     5031     TIP3     OH2      OT      -0.834000       15.9994           0
     23412 TIP3     5031     TIP3     H1       HT       0.417000       1.00800           0
     23413 TIP3     5031     TIP3     H2       HT       0.417000       1.00800           0
     23414 TIP3     5032     TIP3     OH2      OT      -0.834000       15.9994           0
     23415 TIP3     5032     TIP3     H1       HT       0.417000       1.00800           0
     23416 TIP3     5032     TIP3     H2       HT       0.417000       1.00800           0
     23417 TIP3     5033     TIP3     OH2      OT      -0.834000       15.9994           0
     23418 TIP3     5033     TIP3     H1       HT       0.417000       1.00800           0
     23419 TIP3     5033     TIP3     H2       HT       0.417000       1.00800           0
     23420 TIP3     5034     TIP3     OH2      OT      -0.834000       15.9994           0
     23421 TIP3     5034     TIP3     H1       HT       0.417000       1.00800           0
     23422 TIP3     5034     TIP3     H2       HT       0.417000       1.00800           0
     23423 TIP3     5035     TIP3     OH2      OT      -0.834000       15.9994           0
     23424 TIP3     5035     TIP3     H1       HT       0.417000       1.00800           0
     23425 TIP3     5035     TIP3     H2       HT       0.417000       1.00800           0
     23426 TIP3     5036     TIP3     OH2      OT      -0.834000       15.9994           0
     23427 TIP3     5036     TIP3     H1       HT       0.417000       1.00800           0
     23428 TIP3     5036     TIP3     H2       HT       0.417000       1.00800           0
     23429 TIP3     5037     TIP3     OH2      OT      -0.834000       15.9994           0
     23430 TIP3     5037     TIP3     H1       HT       0.417000       1.00800           0
     23431 TIP3     5037     TIP3     H2       HT       0.417000       1.00800           0
     23432 TIP3     5038     TIP3     OH2      OT      -0.834000       15.9994           0
     23433 TIP3     5038     TIP3     H1       HT       0.417000       1.00800           0
     23434 TIP3     5038     TIP3     H2       HT       0.417000       1.00800           0
     23435 TIP3     5039     TIP3     OH2      OT      -0.834000       15.9994           0
     23436 TIP3     5039     TIP3     H1       HT       0.417000       1.00800           0
     23437 TIP3     5039     TIP3     H2       HT       0.417000       1.00800           0
     23438 TIP3     5040     TIP3     OH2      OT      -0.834000       15.9994           0
     23439 TIP3     5040     TIP3     H1       HT       0.417000       1.00800           0
     23440 TIP3     5040     TIP3     H2       HT       0.417000       1.00800           0
     23441 TIP3     5041     TIP3     OH2      OT      -0.834000       15.9994           0
     23442 TIP3     5041     TIP3     H1       HT       0.417000       1.00800           0
     23443 TIP3     5041     TIP3     H2       HT       0.417000       1.00800           0
     23444 TIP3     5042     TIP3     OH2      OT      -0.834000       15.9994           0
     23445 TIP3     5042     TIP3     H1       HT       0.417000       1.00800           0
     23446 TIP3     5042     TIP3     H2       HT       0.417000       1.00800           0
     23447 TIP3     5043     TIP3     OH2      OT      -0.834000       15.9994           0
     23448 TIP3     5043     TIP3     H1       HT       0.417000       1.00800           0
     23449 TIP3     5043     TIP3     H2       HT       0.417000       1.00800           0
     23450 TIP3     5044     TIP3     OH2      OT      -0.834000       15.9994           0
     23451 TIP3     5044     TIP3     H1       HT       0.417000       1.00800           0
     23452 TIP3     5044     TIP3     H2       HT       0.417000       1.00800           0
     23453 TIP3     5045     TIP3     OH2      OT      -0.834000       15.9994           0
     23454 TIP3     5045     TIP3     H1       HT       0.417000       1.00800           0
     23455 TIP3     5045     TIP3     H2       HT       0.417000       1.00800           0
     23456 TIP3     5046     TIP3     OH2      OT      -0.834000       15.9994           0
     23457 TIP3     5046     TIP3     H1       HT       0.417000       1.00800           0
     23458 TIP3     5046     TIP3     H2       HT       0.417000       1.00800           0
     23459 TIP3     5047     TIP3     OH2      OT      -0.834000       15.9994           0
     23460 TIP3     5047     TIP3     H1       HT       0.417000       1.00800           0
     23461 TIP3     5047     TIP3     H2       HT       0.417000       1.00800           0
     23462 TIP3     5048     TIP3     OH2      OT      -0.834000       15.9994           0
     23463 TIP3     5048     TIP3     H1       HT       0.417000       1.00800           0
     23464 TIP3     5048     TIP3     H2       HT       0.417000       1.00800           0
     23465 TIP3     5049     TIP3     OH2      OT      -0.834000       15.9994           0
     23466 TIP3     5049     TIP3     H1       HT       0.417000       1.00800           0
     23467 TIP3     5049     TIP3     H2       HT       0.417000       1.00800           0
     23468 TIP3     5050     TIP3     OH2      OT      -0.834000       15.9994           0
     23469 TIP3     5050     TIP3     H1       HT       0.417000       1.00800           0
     23470 TIP3     5050     TIP3     H2       HT       0.417000       1.00800           0
     23471 TIP3     5051     TIP3     OH2      OT      -0.834000       15.9994           0
     23472 TIP3     5051     TIP3     H1       HT       0.417000       1.00800           0
     23473 TIP3     5051     TIP3     H2       HT       0.417000       1.00800           0
     23474 TIP3     5052     TIP3     OH2      OT      -0.834000       15.9994           0
     23475 TIP3     5052     TIP3     H1       HT       0.417000       1.00800           0
     23476 TIP3     5052     TIP3     H2       HT       0.417000       1.00800           0
     23477 TIP3     5053     TIP3     OH2      OT      -0.834000       15.9994           0
     23478 TIP3     5053     TIP3     H1       HT       0.417000       1.00800           0
     23479 TIP3     5053     TIP3     H2       HT       0.417000       1.00800           0
     23480 TIP3     5054     TIP3     OH2      OT      -0.834000       15.9994           0
     23481 TIP3     5054     TIP3     H1       HT       0.417000       1.00800           0
     23482 TIP3     5054     TIP3     H2       HT       0.417000       1.00800           0
     23483 TIP3     5055     TIP3     OH2      OT      -0.834000       15.9994           0
     23484 TIP3     5055     TIP3     H1       HT       0.417000       1.00800           0
     23485 TIP3     5055     TIP3     H2       HT       0.417000       1.00800           0
     23486 TIP3     5056     TIP3     OH2      OT      -0.834000       15.9994           0
     23487 TIP3     5056     TIP3     H1       HT       0.417000       1.00800           0
     23488 TIP3     5056     TIP3     H2       HT       0.417000       1.00800           0
     23489 TIP3     5057     TIP3     OH2      OT      -0.834000       15.9994           0
     23490 TIP3     5057     TIP3     H1       HT       0.417000       1.00800           0
     23491 TIP3     5057     TIP3     H2       HT       0.417000       1.00800           0
     23492 TIP3     5058     TIP3     OH2      OT      -0.834000       15.9994           0
     23493 TIP3     5058     TIP3     H1       HT       0.417000       1.00800           0
     23494 TIP3     5058     TIP3     H2       HT       0.417000       1.00800           0
     23495 TIP3     5059     TIP3     OH2      OT      -0.834000       15.9994           0
     23496 TIP3     5059     TIP3     H1       HT       0.417000       1.00800           0
     23497 TIP3     5059     TIP3     H2       HT       0.417000       1.00800           0
     23498 TIP3     5060     TIP3     OH2      OT      -0.834000       15.9994           0
     23499 TIP3     5060     TIP3     H1       HT       0.417000       1.00800           0
     23500 TIP3     5060     TIP3     H2       HT       0.417000       1.00800           0
     23501 TIP3     5061     TIP3     OH2      OT      -0.834000       15.9994           0
     23502 TIP3     5061     TIP3     H1       HT       0.417000       1.00800           0
     23503 TIP3     5061     TIP3     H2       HT       0.417000       1.00800           0
     23504 TIP3     5062     TIP3     OH2      OT      -0.834000       15.9994           0
     23505 TIP3     5062     TIP3     H1       HT       0.417000       1.00800           0
     23506 TIP3     5062     TIP3     H2       HT       0.417000       1.00800           0
     23507 TIP3     5063     TIP3     OH2      OT      -0.834000       15.9994           0
     23508 TIP3     5063     TIP3     H1       HT       0.417000       1.00800           0
     23509 TIP3     5063     TIP3     H2       HT       0.417000       1.00800           0
     23510 TIP3     5064     TIP3     OH2      OT      -0.834000       15.9994           0
     23511 TIP3     5064     TIP3     H1       HT       0.417000       1.00800           0
     23512 TIP3     5064     TIP3     H2       HT       0.417000       1.00800           0
     23513 TIP3     5065     TIP3     OH2      OT      -0.834000       15.9994           0
     23514 TIP3     5065     TIP3     H1       HT       0.417000       1.00800           0
     23515 TIP3     5065     TIP3     H2       HT       0.417000       1.00800           0
     23516 TIP3     5066     TIP3     OH2      OT      -0.834000       15.9994           0
     23517 TIP3     5066     TIP3     H1       HT       0.417000       1.00800           0
     23518 TIP3     5066     TIP3     H2       HT       0.417000       1.00800           0
     23519 TIP3     5067     TIP3     OH2      OT      -0.834000       15.9994           0
     23520 TIP3     5067     TIP3     H1       HT       0.417000       1.00800           0
     23521 TIP3     5067     TIP3     H2       HT       0.417000       1.00800           0
     23522 TIP3     5068     TIP3     OH2      OT      -0.834000       15.9994           0
     23523 TIP3     5068     TIP3     H1       HT       0.417000       1.00800           0
     23524 TIP3     5068     TIP3     H2       HT       0.417000       1.00800           0
     23525 TIP3     5069     TIP3     OH2      OT      -0.834000       15.9994           0
     23526 TIP3     5069     TIP3     H1       HT       0.417000       1.00800           0
     23527 TIP3     5069     TIP3     H2       HT       0.417000       1.00800           0
     23528 TIP3     5070     TIP3     OH2      OT      -0.834000       15.9994           0
     23529 TIP3     5070     TIP3     H1       HT       0.417000       1.00800           0
     23530 TIP3     5070     TIP3     H2       HT       0.417000       1.00800           0
     23531 TIP3     5071     TIP3     OH2      OT      -0.834000       15.9994           0
     23532 TIP3     5071     TIP3     H1       HT       0.417000       1.00800           0
     23533 TIP3     5071     TIP3     H2       HT       0.417000       1.00800           0
     23534 TIP3     5072     TIP3     OH2      OT      -0.834000       15.9994           0
     23535 TIP3     5072     TIP3     H1       HT       0.417000       1.00800           0
     23536 TIP3     5072     TIP3     H2       HT       0.417000       1.00800           0
     23537 TIP3     5073     TIP3     OH2      OT      -0.834000       15.9994           0
     23538 TIP3     5073     TIP3     H1       HT       0.417000       1.00800           0
     23539 TIP3     5073     TIP3     H2       HT       0.417000       1.00800           0
     23540 TIP3     5074     TIP3     OH2      OT      -0.834000       15.9994           0
     23541 TIP3     5074     TIP3     H1       HT       0.417000       1.00800           0
     23542 TIP3     5074     TIP3     H2       HT       0.417000       1.00800           0
     23543 TIP3     5075     TIP3     OH2      OT      -0.834000       15.9994           0
     23544 TIP3     5075     TIP3     H1       HT       0.417000       1.00800           0
     23545 TIP3     5075     TIP3     H2       HT       0.417000       1.00800           0
     23546 TIP3     5076     TIP3     OH2      OT      -0.834000       15.9994           0
     23547 TIP3     5076     TIP3     H1       HT       0.417000       1.00800           0
     23548 TIP3     5076     TIP3     H2       HT       0.417000       1.00800           0
     23549 TIP3     5077     TIP3     OH2      OT      -0.834000       15.9994           0
     23550 TIP3     5077     TIP3     H1       HT       0.417000       1.00800           0
     23551 TIP3     5077     TIP3     H2       HT       0.417000       1.00800           0
     23552 TIP3     5078     TIP3     OH2      OT      -0.834000       15.9994           0
     23553 TIP3     5078     TIP3     H1       HT       0.417000       1.00800           0
     23554 TIP3     5078     TIP3     H2       HT       0.417000       1.00800           0
     23555 TIP3     5079     TIP3     OH2      OT      -0.834000       15.9994           0
     23556 TIP3     5079     TIP3     H1       HT       0.417000       1.00800           0
     23557 TIP3     5079     TIP3     H2       HT       0.417000       1.00800           0
     23558 TIP3     5080     TIP3     OH2      OT      -0.834000       15.9994           0
     23559 TIP3     5080     TIP3     H1       HT       0.417000       1.00800           0
     23560 TIP3     5080     TIP3     H2       HT       0.417000       1.00800           0
     23561 TIP3     5081     TIP3     OH2      OT      -0.834000       15.9994           0
     23562 TIP3     5081     TIP3     H1       HT       0.417000       1.00800           0
     23563 TIP3     5081     TIP3     H2       HT       0.417000       1.00800           0
     23564 TIP3     5082     TIP3     OH2      OT      -0.834000       15.9994           0
     23565 TIP3     5082     TIP3     H1       HT       0.417000       1.00800           0
     23566 TIP3     5082     TIP3     H2       HT       0.417000       1.00800           0
     23567 TIP3     5083     TIP3     OH2      OT      -0.834000       15.9994           0
     23568 TIP3     5083     TIP3     H1       HT       0.417000       1.00800           0
     23569 TIP3     5083     TIP3     H2       HT       0.417000       1.00800           0
     23570 TIP3     5084     TIP3     OH2      OT      -0.834000       15.9994           0
     23571 TIP3     5084     TIP3     H1       HT       0.417000       1.00800           0
     23572 TIP3     5084     TIP3     H2       HT       0.417000       1.00800           0
     23573 TIP3     5085     TIP3     OH2      OT      -0.834000       15.9994           0
     23574 TIP3     5085     TIP3     H1       HT       0.417000       1.00800           0
     23575 TIP3     5085     TIP3     H2       HT       0.417000       1.00800           0
     23576 TIP3     5086     TIP3     OH2      OT      -0.834000       15.9994           0
     23577 TIP3     5086     TIP3     H1       HT       0.417000       1.00800           0
     23578 TIP3     5086     TIP3     H2       HT       0.417000       1.00800           0
     23579 TIP3     5087     TIP3     OH2      OT      -0.834000       15.9994           0
     23580 TIP3     5087     TIP3     H1       HT       0.417000       1.00800           0
     23581 TIP3     5087     TIP3     H2       HT       0.417000       1.00800           0
     23582 TIP3     5088     TIP3     OH2      OT      -0.834000       15.9994           0
     23583 TIP3     5088     TIP3     H1       HT       0.417000       1.00800           0
     23584 TIP3     5088     TIP3     H2       HT       0.417000       1.00800           0
     23585 TIP3     5089     TIP3     OH2      OT      -0.834000       15.9994           0
     23586 TIP3     5089     TIP3     H1       HT       0.417000       1.00800           0
     23587 TIP3     5089     TIP3     H2       HT       0.417000       1.00800           0
     23588 TIP3     5090     TIP3     OH2      OT      -0.834000       15.9994           0
     23589 TIP3     5090     TIP3     H1       HT       0.417000       1.00800           0
     23590 TIP3     5090     TIP3     H2       HT       0.417000       1.00800           0
     23591 TIP3     5091     TIP3     OH2      OT      -0.834000       15.9994           0
     23592 TIP3     5091     TIP3     H1       HT       0.417000       1.00800           0
     23593 TIP3     5091     TIP3     H2       HT       0.417000       1.00800           0
     23594 TIP3     5092     TIP3     OH2      OT      -0.834000       15.9994           0
     23595 TIP3     5092     TIP3     H1       HT       0.417000       1.00800           0
     23596 TIP3     5092     TIP3     H2       HT       0.417000       1.00800           0
     23597 TIP3     5093     TIP3     OH2      OT      -0.834000       15.9994           0
     23598 TIP3     5093     TIP3     H1       HT       0.417000       1.00800           0
     23599 TIP3     5093     TIP3     H2       HT       0.417000       1.00800           0
     23600 TIP3     5094     TIP3     OH2      OT      -0.834000       15.9994           0
     23601 TIP3     5094     TIP3     H1       HT       0.417000       1.00800           0
     23602 TIP3     5094     TIP3     H2       HT       0.417000       1.00800           0
     23603 TIP3     5095     TIP3     OH2      OT      -0.834000       15.9994           0
     23604 TIP3     5095     TIP3     H1       HT       0.417000       1.00800           0
     23605 TIP3     5095     TIP3     H2       HT       0.417000       1.00800           0
     23606 TIP3     5096     TIP3     OH2      OT      -0.834000       15.9994           0
     23607 TIP3     5096     TIP3     H1       HT       0.417000       1.00800           0
     23608 TIP3     5096     TIP3     H2       HT       0.417000       1.00800           0
     23609 TIP3     5097     TIP3     OH2      OT      -0.834000       15.9994           0
     23610 TIP3     5097     TIP3     H1       HT       0.417000       1.00800           0
     23611 TIP3     5097     TIP3     H2       HT       0.417000       1.00800           0
     23612 TIP3     5098     TIP3     OH2      OT      -0.834000       15.9994           0
     23613 TIP3     5098     TIP3     H1       HT       0.417000       1.00800           0
     23614 TIP3     5098     TIP3     H2       HT       0.417000       1.00800           0
     23615 TIP3     5099     TIP3     OH2      OT      -0.834000       15.9994           0
     23616 TIP3     5099     TIP3     H1       HT       0.417000       1.00800           0
     23617 TIP3     5099     TIP3     H2       HT       0.417000       1.00800           0
     23618 TIP3     5100     TIP3     OH2      OT      -0.834000       15.9994           0
     23619 TIP3     5100     TIP3     H1       HT       0.417000       1.00800           0
     23620 TIP3     5100     TIP3     H2       HT       0.417000       1.00800           0
     23621 TIP3     5101     TIP3     OH2      OT      -0.834000       15.9994           0
     23622 TIP3     5101     TIP3     H1       HT       0.417000       1.00800           0
     23623 TIP3     5101     TIP3     H2       HT       0.417000       1.00800           0
     23624 TIP3     5102     TIP3     OH2      OT      -0.834000       15.9994           0
     23625 TIP3     5102     TIP3     H1       HT       0.417000       1.00800           0
     23626 TIP3     5102     TIP3     H2       HT       0.417000       1.00800           0
     23627 TIP3     5103     TIP3     OH2      OT      -0.834000       15.9994           0
     23628 TIP3     5103     TIP3     H1       HT       0.417000       1.00800           0
     23629 TIP3     5103     TIP3     H2       HT       0.417000       1.00800           0
     23630 TIP3     5104     TIP3     OH2      OT      -0.834000       15.9994           0
     23631 TIP3     5104     TIP3     H1       HT       0.417000       1.00800           0
     23632 TIP3     5104     TIP3     H2       HT       0.417000       1.00800           0
     23633 TIP3     5105     TIP3     OH2      OT      -0.834000       15.9994           0
     23634 TIP3     5105     TIP3     H1       HT       0.417000       1.00800           0
     23635 TIP3     5105     TIP3     H2       HT       0.417000       1.00800           0
     23636 TIP3     5106     TIP3     OH2      OT      -0.834000       15.9994           0
     23637 TIP3     5106     TIP3     H1       HT       0.417000       1.00800           0
     23638 TIP3     5106     TIP3     H2       HT       0.417000       1.00800           0
     23639 TIP3     5107     TIP3     OH2      OT      -0.834000       15.9994           0
     23640 TIP3     5107     TIP3     H1       HT       0.417000       1.00800           0
     23641 TIP3     5107     TIP3     H2       HT       0.417000       1.00800           0
     23642 TIP3     5108     TIP3     OH2      OT      -0.834000       15.9994           0
     23643 TIP3     5108     TIP3     H1       HT       0.417000       1.00800           0
     23644 TIP3     5108     TIP3     H2       HT       0.417000       1.00800           0
     23645 TIP3     5109     TIP3     OH2      OT      -0.834000       15.9994           0
     23646 TIP3     5109     TIP3     H1       HT       0.417000       1.00800           0
     23647 TIP3     5109     TIP3     H2       HT       0.417000       1.00800           0
     23648 TIP3     5110     TIP3     OH2      OT      -0.834000       15.9994           0
     23649 TIP3     5110     TIP3     H1       HT       0.417000       1.00800           0
     23650 TIP3     5110     TIP3     H2       HT       0.417000       1.00800           0
     23651 TIP3     5111     TIP3     OH2      OT      -0.834000       15.9994           0
     23652 TIP3     5111     TIP3     H1       HT       0.417000       1.00800           0
     23653 TIP3     5111     TIP3     H2       HT       0.417000       1.00800           0
     23654 TIP3     5112     TIP3     OH2      OT      -0.834000       15.9994           0
     23655 TIP3     5112     TIP3     H1       HT       0.417000       1.00800           0
     23656 TIP3     5112     TIP3     H2       HT       0.417000       1.00800           0
     23657 TIP3     5113     TIP3     OH2      OT      -0.834000       15.9994           0
     23658 TIP3     5113     TIP3     H1       HT       0.417000       1.00800           0
     23659 TIP3     5113     TIP3     H2       HT       0.417000       1.00800           0
     23660 TIP3     5114     TIP3     OH2      OT      -0.834000       15.9994           0
     23661 TIP3     5114     TIP3     H1       HT       0.417000       1.00800           0
     23662 TIP3     5114     TIP3     H2       HT       0.417000       1.00800           0
     23663 TIP3     5115     TIP3     OH2      OT      -0.834000       15.9994           0
     23664 TIP3     5115     TIP3     H1       HT       0.417000       1.00800           0
     23665 TIP3     5115     TIP3     H2       HT       0.417000       1.00800           0
     23666 TIP3     5116     TIP3     OH2      OT      -0.834000       15.9994           0
     23667 TIP3     5116     TIP3     H1       HT       0.417000       1.00800           0
     23668 TIP3     5116     TIP3     H2       HT       0.417000       1.00800           0
     23669 TIP3     5117     TIP3     OH2      OT      -0.834000       15.9994           0
     23670 TIP3     5117     TIP3     H1       HT       0.417000       1.00800           0
     23671 TIP3     5117     TIP3     H2       HT       0.417000       1.00800           0
     23672 TIP3     5118     TIP3     OH2      OT      -0.834000       15.9994           0
     23673 TIP3     5118     TIP3     H1       HT       0.417000       1.00800           0
     23674 TIP3     5118     TIP3     H2       HT       0.417000       1.00800           0
     23675 TIP3     5119     TIP3     OH2      OT      -0.834000       15.9994           0
     23676 TIP3     5119     TIP3     H1       HT       0.417000       1.00800           0
     23677 TIP3     5119     TIP3     H2       HT       0.417000       1.00800           0
     23678 TIP3     5120     TIP3     OH2      OT      -0.834000       15.9994           0
     23679 TIP3     5120     TIP3     H1       HT       0.417000       1.00800           0
     23680 TIP3     5120     TIP3     H2       HT       0.417000       1.00800           0

     23616 !NBOND: bonds
         1         2         1         6         1        10         2         3
         2         4         2         5         6         7         6         8
         6         9        10        11        10        12        10        13
         1        14        14        15        14        16        14        17
        17        18        17        19        17        24        24        20
        20        23        20        21        20        22        25        26
        25        27        25        28        25        23        28        29
        28        36        28        30        36        37        36        38
        36        39        30        31        31        33        31        32
        33        34        33        35        33        45        45        46
        45        47        45        48        48        49        48        50
        48        51        51        52        51        53        51        54
        54        55        54        56        54        57        57        58
        57        59        57        60        60        61        60        62
        60        63        63        64        63        65        63        66
        66        67        66        68        66        69        69        70
        69        71        69        72        72        73        72        74
        72        75        75        76        75        77        75        78
        78        79        78        80        78        81        81        82
        81        83        81        84        84        85        84        86
        84        87        39        40        40        42        40        41
        42        43        42        44        42        88        88        89
        88        90        88        91        91        92        91        93
        91        94        94        95        94        96        94        97
        97        98        97        99        97       100       100       101
       100       102       100       103       103       104       103       105
       103       106       106       107       106       108       106       109
       109       110       109       111       109       112       112       113
       112       114       112       115       115       116       115       117
       115       118       118       119       118       120       118       121
       121       122       121       123       121       124       124       125
       124       126       124       127       127       128       127       129
       127       130       131       132       131       136       131       140
       132       133       132       134       132       135       136       137
       136       138       136       139       140       141       140       142
       140       143       131       144       144       145       144       146
       144       147       147       148       147       149       147       154
       154       150       150       153       150       151       150       152
       155       156       155       157       155       158       155       153
       158       159       158       166       158       160       166       167
       166       168       166       169       160       161       161       163
       161       162       163       164       163       165       163       175
       175       176       175       177       175       178       178       179
       178       180       178       181       181       182       181       183
       181       184       184       185       184       186       184       187
       187       188       187       189       187       190       190       191
       190       192       190       193       193       194       193       195
       193       196       196       197       196       198       196       199
       199       200       199       201       199       202       202       203
       202       204       202       205       205       206       205       207
       205       208       208       209       208       210       208       211
       211       212       211       213       211       214       214       215
       214       216       214       217       169       170       170       172
       170       171       172       173       172       174       172       218
       218       219       218       220       218       221       221       222
       221       223       221       224       224       225       224       226
       224       227       227       228       227       229       227       230
       230       231       230       232       230       233       233       234
       233       235       233       236       236       237       236       238
       236       239       239       240       239       241       239       242
       242       243       242       244       242       245       245       246
       245       247       245       248       248       249       248       250
       248       251       251       252       251       253       251       254
       254       255       254       256       254       257       257       258
       257       259       257       260       261       262       261       266
       261       270       262       263       262       264       262       265
       266       267       266       268       266       269       270       271
       270       272       270       273       261       274       274       275
       274       276       274       277       277       278       277       279
       277       284       284       280       280       283       280       281
       280       282       285       286       285       287       285       288
       285       283       288       289       288       296       288       290
       296       297       296       298       296       299       290       291
       291       293       291       292       293       294       293       295
       293       305       305       306       305       307       305       308
       308       309       308       310       308       311       311       312
       311       313       311       314       314       315       314       316
       314       317       317       318       317       319       317       320
       320       321       320       322       320       323       323       324
       323       325       323       326       326       327       326       328
       326       329       329       330       329       331       329       332
       332       333       332       334       332       335       335       336
       335       337       335       338       338       339       338       340
       338       341       341       342       341       343       341       344
       344       345       344       346       344       347       299       300
       300       302       300       301       302       303       302       304
       302       348       348       349       348       350       348       351
       351       352       351       353       351       354       354       355
       354       356       354       357       357       358       357       359
       357       360       360       361       360       362       360       363
       363       364       363       365       363       366       366       367
       366       368       366       369       369       370       369       371
       369       372       372       373       372       374       372       375
       375       376       375       377       375       378       378       379
       378       380       378       381       381       382       381       383
       381       384       384       385       384       386       384       387
       387       388       387       389       387       390       391       392
       391       396       391       400       392       393       392       394
       392       395       396       397       396       398       396       399
       400       401       400       402       400       403       391       404
       404       405       404       406       404       407       407       408
       407       409       407       414       414       410       410       413
       410       411       410       412       415       416       415       417
       415       418       415       413       418       419       418       426
       418       420       426       427       426       428       426       429
       420       421       421       423       421       422       423       424
       423       425       423       435       435       436       435       437
       435       438       438       439       438       440       438       441
       441       442       441       443       441       444       444       445
       444       446       444       447       447       448       447       449
       447       450       450       451       450       452       450       453
       453       454       453       455       453       456       456       457
       456       458       456       459       459       460       459       461
       459       462       462       463       462       464       462       465
       465       466       465       467       465       468       468       469
       468       470       468       471       471       472       471       473
       471       474       474       475       474       476       474       477
       429       430       430       432       430       431       432       433
       432       434       432       478       478       479       478       480
       478       481       481       482       481       483       481       484
       484       485       484       486       484       487       487       488
       487       489       487       490       490       491       490       492
       490       493       493       494       493       495       493       496
       496       497       496       498       496       499       499       500
       499       501       499       502       502       503       502       504
       502       505       505       506       505       507       505       508
       508       509       508       510       508       511       511       512
       511       513       511       514       514       515       514       516
       514       517       517       518       517       519       517       520
       521       522       521       526       521       530       522       523
       522       524       522       525       526       527       526       528
       526       529       530       531       530       532       530       533
       521       534       534       535       534       536       534       537
       537       538       537       539       537       544       544       540
       540       543       540       541       540       542       545       546
       545       547       545       548       545       543       548       549
       548       556       548       550       556       557       556       558
       556       559       550       551       551       553       551       552
       553       554       553       555       553       565       565       566
       565       567       565       568       568       569       568       570
       568       571       571       572       571       573       571       574
       574       575       574       576       574       577       577       578
       577       579       577       580       580       581       580       582
       580       583       583       584       583       585       583       586
       586       587       586       588       586       589       589       590
       589       591       589       592       592       593       592       594
       592       595       595       596       595       597       595       598
       598       599       598       600       598       601       601       602
       601       603       601       604       604       605       604       606
       604       607       559       560       560       562       560       561
       562       563       562       564       562       608       608       609
       608       610       608       611       611       612       611       613
       611       614       614       615       614       616       614       617
       617       618       617       619       617       620       620       621
       620       622       620       623       623       624       623       625
       623       626       626       627       626       628       626       629
       629       630       629       631       629       632       632       633
       632       634       632       635       635       636       635       637
       635       638       638       639       638       640       638       641
       641       642       641       643       641       644       644       645
       644       646       644       647       647       648       647       649
       647       650       651       652       651       656       651       660
       652       653       652       654       652       655       656       657
       656       658       656       659       660       661       660       662
       660       663       651       664       664       665       664       666
       664       667       667       668       667       669       667       674
       674       670       670       673       670       671       670       672
       675       676       675       677       675       678       675       673
       678       679       678       686       678       680       686       687
       686       688       686       689       680       681       681       683
       681       682       683       684       683       685       683       695
       695       696       695       697       695       698       698       699
       698       700       698       701       701       702       701       703
       701       704       704       705       704       706       704       707
       707       708       707       709       707       710       710       711
       710       712       710       713       713       714       713       715
       713       716       716       717       716       718       716       719
       719       720       719       721       719       722       722       723
       722       724       722       725       725       726       725       727
       725       728       728       729       728       730       728       731
       731       732       731       733       731       734       734       735
       734       736       734       737       689       690       690       692
       690       691       692       693       692       694       692       738
       738       739       738       740       738       741       741       742
       741       743       741       744       744       745       744       746
       744       747       747       748       747       749       747       750
       750       751       750       752       750       753       753       754
       753       755       753       756       756       757       756       758
       756       759       759       760       759       761       759       762
       762       763       762       764       762       765       765       766
       765       767       765       768       768       769       768       770
       768       771       771       772       771       773       771       774
       774       775       774       776       774       777       777       778
       777       779       777       780       781       782       781       786
       781       790       782       783       782       784       782       785
       786       787       786       788       786       789       790       791
       790       792       790       793       781       794       794       795
       794       796       794       797       797       798       797       799
       797       804       804       800       800       803       800       801
       800       802       805       806       805       807       805       808
       805       803       808       809       808       816       808       810
       816       817       816       818       816       819       810       811
       811       813       811       812       813       814       813       815
       813       825       825       826       825       827       825       828
       828       829       828       830       828       831       831       832
       831       833       831       834       834       835       834       836
       834       837       837       838       837       839       837       840
       840       841       840       842       840       843       843       844
       843       845       843       846       846       847       846       848
       846       849       849       850       849       851       849       852
       852       853       852       854       852       855       855       856
       855       857       855       858       858       859       858       860
       858       861       861       862       861       863       861       864
       864       865       864       866       864       867       819       820
       820       822       820       821       822       823       822       824
       822       868       868       869       868       870       868       871
       871       872       871       873       871       874       874       875
       874       876       874       877       877       878       877       879
       877       880       880       881       880       882       880       883
       883       884       883       885       883       886       886       887
       886       888       886       889       889       890       889       891
       889       892       892       893       892       894       892       895
       895       896       895       897       895       898       898       899
       898       900       898       901       901       902       901       903
       901       904       904       905       904       906       904       907
       907       908       907       909       907       910       911       912
       911       916       911       920       912       913       912       914
       912       915       916       917       916       918       916       919
       920       921       920       922       920       923       911       924
       924       925       924       926       924       927       927       928
       927       929       927       934       934       930       930       933
       930       931       930       932       935       936       935       937
       935       938       935       933       938       939       938       946
       938       940       946       947       946       948       946       949
       940       941       941       943       941       942       943       944
       943       945       943       955       955       956       955       957
       955       958       958       959       958       960       958       961
       961       962       961       963       961       964       964       965
       964       966       964       967       967       968       967       969
       967       970       970       971       970       972       970       973
       973       974       973       975       973       976       976       977
       976       978       976       979       979       980       979       981
       979       982       982       983       982       984       982       985
       985       986       985       987       985       988       988       989
       988       990       988       991       991       992       991       993
       991       994       994       995       994       996       994       997
       949       950       950       952       950       951       952       953
       952       954       952       998       998       999       998      1000
       998      1001      1001      1002      1001      1003      1001      1004
      1004      1005      1004      1006      1004      1007      1007      1008
      1007      1009      1007      1010      1010      1011      1010      1012
      1010      1013      1013      1014      1013      1015      1013      1016
      1016      1017      1016      1018      1016      1019      1019      1020
      1019      1021      1019      1022      1022      1023      1022      1024
      1022      1025      1025      1026      1025      1027      1025      1028
      1028      1029      1028      1030      1028      1031      1031      1032
      1031      1033      1031      1034      1034      1035      1034      1036
      1034      1037      1037      1038      1037      1039      1037      1040
      1041      1042      1041      1046      1041      1050      1042      1043
      1042      1044      1042      1045      1046      1047      1046      1048
      1046      1049      1050      1051      1050      1052      1050      1053
      1041      1054      1054      1055      1054      1056      1054      1057
      1057      1058      1057      1059      1057      1064      1064      1060
      1060      1063      1060      1061      1060      1062      1065      1066
      1065      1067      1065      1068      1065      1063      1068      1069
      1068      1076      1068      1070      1076      1077      1076      1078
      1076      1079      1070      1071      1071      1073      1071      1072
      1073      1074      1073      1075      1073      1085      1085      1086
      1085      1087      1085      1088      1088      1089      1088      1090
      1088      1091      1091      1092      1091      1093      1091      1094
      1094      1095      1094      1096      1094      1097      1097      1098
      1097      1099      1097      1100      1100      1101      1100      1102
      1100      1103      1103      1104      1103      1105      1103      1106
      1106      1107      1106      1108      1106      1109      1109      1110
      1109      1111      1109      1112      1112      1113      1112      1114
      1112      1115      1115      1116      1115      1117      1115      1118
      1118      1119      1118      1120      1118      1121      1121      1122
      1121      1123      1121      1124      1124      1125      1124      1126
      1124      1127      1079      1080      1080      1082      1080      1081
      1082      1083      1082      1084      1082      1128      1128      1129
      1128      1130      1128      1131      1131      1132      1131      1133
      1131      1134      1134      1135      1134      1136      1134      1137
      1137      1138      1137      1139      1137      1140      1140      1141
      1140      1142      1140      1143      1143      1144      1143      1145
      1143      1146      1146      1147      1146      1148      1146      1149
      1149      1150      1149      1151      1149      1152      1152      1153
      1152      1154      1152      1155      1155      1156      1155      1157
      1155      1158      1158      1159      1158      1160      1158      1161
      1161      1162      1161      1163      1161      1164      1164      1165
      1164      1166      1164      1167      1167      1168      1167      1169
      1167      1170      1171      1172      1171      1176      1171      1180
      1172      1173      1172      1174      1172      1175      1176      1177
      1176      1178      1176      1179      1180      1181      1180      1182
      1180      1183      1171      1184      1184      1185      1184      1186
      1184      1187      1187      1188      1187      1189      1187      1194
      1194      1190      1190      1193      1190      1191      1190      1192
      1195      1196      1195      1197      1195      1198      1195      1193
      1198      1199      1198      1206      1198      1200      1206      1207
      1206      1208      1206      1209      1200      1201      1201      1203
      1201      1202      1203      1204      1203      1205      1203      1215
      1215      1216      1215      1217      1215      1218      1218      1219
      1218      1220      1218      1221      1221      1222      1221      1223
      1221      1224      1224      1225      1224      1226      1224      1227
      1227      1228      1227      1229      1227      1230      1230      1231
      1230      1232      1230      1233      1233      1234      1233      1235
      1233      1236      1236      1237      1236      1238      1236      1239
      1239      1240      1239      1241      1239      1242      1242      1243
      1242      1244      1242      1245      1245      1246      1245      1247
      1245      1248      1248      1249      1248      1250      1248      1251
      1251      1252      1251      1253      1251      1254      1254      1255
      1254      1256      1254      1257      1209      1210      1210      1212
      1210      1211      1212      1213      1212      1214      1212      1258
      1258      1259      1258      1260      1258      1261      1261      1262
      1261      1263      1261      1264      1264      1265      1264      1266
      1264      1267      1267      1268      1267      1269      1267      1270
      1270      1271      1270      1272      1270      1273      1273      1274
      1273      1275      1273      1276      1276      1277      1276      1278
      1276      1279      1279      1280      1279      1281      1279      1282
      1282      1283      1282      1284      1282      1285      1285      1286
      1285      1287      1285      1288      1288      1289      1288      1290
      1288      1291      1291      1292      1291      1293      1291      1294
      1294      1295      1294      1296      1294      1297      1297      1298
      1297      1299      1297      1300      1301      1302      1301      1306
      1301      1310      1302      1303      1302      1304      1302      1305
      1306      1307      1306      1308      1306      1309      1310      1311
      1310      1312      1310      1313      1301      1314      1314      1315
      1314      1316      1314      1317      1317      1318      1317      1319
      1317      1324      1324      1320      1320      1323      1320      1321
      1320      1322      1325      1326      1325      1327      1325      1328
      1325      1323      1328      1329      1328      1336      1328      1330
      1336      1337      1336      1338      1336      1339      1330      1331
      1331      1333      1331      1332      1333      1334      1333      1335
      1333      1345      1345      1346      1345      1347      1345      1348
      1348      1349      1348      1350      1348      1351      1351      1352
      1351      1353      1351      1354      1354      1355      1354      1356
      1354      1357      1357      1358      1357      1359      1357      1360
      1360      1361      1360      1362      1360      1363      1363      1364
      1363      1365      1363      1366      1366      1367      1366      1368
      1366      1369      1369      1370      1369      1371      1369      1372
      1372      1373      1372      1374      1372      1375      1375      1376
      1375      1377      1375      1378      1378      1379      1378      1380
      1378      1381      1381      1382      1381      1383      1381      1384
      1384      1385      1384      1386      1384      1387      1339      1340
      1340      1342      1340      1341      1342      1343      1342      1344
      1342      1388      1388      1389      1388      1390      1388      1391
      1391      1392      1391      1393      1391      1394      1394      1395
      1394      1396      1394      1397      1397      1398      1397      1399
      1397      1400      1400      1401      1400      1402      1400      1403
      1403      1404      1403      1405      1403      1406      1406      1407
      1406      1408      1406      1409      1409      1410      1409      1411
      1409      1412      1412      1413      1412      1414      1412      1415
      1415      1416      1415      1417      1415      1418      1418      1419
      1418      1420      1418      1421      1421      1422      1421      1423
      1421      1424      1424      1425      1424      1426      1424      1427
      1427      1428      1427      1429      1427      1430      1431      1432
      1431      1436      1431      1440      1432      1433      1432      1434
      1432      1435      1436      1437      1436      1438      1436      1439
      1440      1441      1440      1442      1440      1443      1431      1444
      1444      1445      1444      1446      1444      1447      1447      1448
      1447      1449      1447      1454      1454      1450      1450      1453
      1450      1451      1450      1452      1455      1456      1455      1457
      1455      1458      1455      1453      1458      1459      1458      1466
      1458      1460      1466      1467      1466      1468      1466      1469
      1460      1461      1461      1463      1461      1462      1463      1464
      1463      1465      1463      1475      1475      1476      1475      1477
      1475      1478      1478      1479      1478      1480      1478      1481
      1481      1482      1481      1483      1481      1484      1484      1485
      1484      1486      1484      1487      1487      1488      1487      1489
      1487      1490      1490      1491      1490      1492      1490      1493
      1493      1494      1493      1495      1493      1496      1496      1497
      1496      1498      1496      1499      1499      1500      1499      1501
      1499      1502      1502      1503      1502      1504      1502      1505
      1505      1506      1505      1507      1505      1508      1508      1509
      1508      1510      1508      1511      1511      1512      1511      1513
      1511      1514      1514      1515      1514      1516      1514      1517
      1469      1470      1470      1472      1470      1471      1472      1473
      1472      1474      1472      1518      1518      1519      1518      1520
      1518      1521      1521      1522      1521      1523      1521      1524
      1524      1525      1524      1526      1524      1527      1527      1528
      1527      1529      1527      1530      1530      1531      1530      1532
      1530      1533      1533      1534      1533      1535      1533      1536
      1536      1537      1536      1538      1536      1539      1539      1540
      1539      1541      1539      1542      1542      1543      1542      1544
      1542      1545      1545      1546      1545      1547      1545      1548
      1548      1549      1548      1550      1548      1551      1551      1552
      1551      1553      1551      1554      1554      1555      1554      1556
      1554      1557      1557      1558      1557      1559      1557      1560
      1561      1562      1561      1566      1561      1570      1562      1563
      1562      1564      1562      1565      1566      1567      1566      1568
      1566      1569      1570      1571      1570      1572      1570      1573
      1561      1574      1574      1575      1574      1576      1574      1577
      1577      1578      1577      1579      1577      1584      1584      1580
      1580      1583      1580      1581      1580      1582      1585      1586
      1585      1587      1585      1588      1585      1583      1588      1589
      1588      1596      1588      1590      1596      1597      1596      1598
      1596      1599      1590      1591      1591      1593      1591      1592
      1593      1594      1593      1595      1593      1605      1605      1606
      1605      1607      1605      1608      1608      1609      1608      1610
      1608      1611      1611      1612      1611      1613      1611      1614
      1614      1615      1614      1616      1614      1617      1617      1618
      1617      1619      1617      1620      1620      1621      1620      1622
      1620      1623      1623      1624      1623      1625      1623      1626
      1626      1627      1626      1628      1626      1629      1629      1630
      1629      1631      1629      1632      1632      1633      1632      1634
      1632      1635      1635      1636      1635      1637      1635      1638
      1638      1639      1638      1640      1638      1641      1641      1642
      1641      1643      1641      1644      1644      1645      1644      1646
      1644      1647      1599      1600      1600      1602      1600      1601
      1602      1603      1602      1604      1602      1648      1648      1649
      1648      1650      1648      1651      1651      1652      1651      1653
      1651      1654      1654      1655      1654      1656      1654      1657
      1657      1658      1657      1659      1657      1660      1660      1661
      1660      1662      1660      1663      1663      1664      1663      1665
      1663      1666      1666      1667      1666      1668      1666      1669
      1669      1670      1669      1671      1669      1672      1672      1673
      1672      1674      1672      1675      1675      1676      1675      1677
      1675      1678      1678      1679      1678      1680      1678      1681
      1681      1682      1681      1683      1681      1684      1684      1685
      1684      1686      1684      1687      1687      1688      1687      1689
      1687      1690      1691      1692      1691      1696      1691      1700
      1692      1693      1692      1694      1692      1695      1696      1697
      1696      1698      1696      1699      1700      1701      1700      1702
      1700      1703      1691      1704      1704      1705      1704      1706
      1704      1707      1707      1708      1707      1709      1707      1714
      1714      1710      1710      1713      1710      1711      1710      1712
      1715      1716      1715      1717      1715      1718      1715      1713
      1718      1719      1718      1726      1718      1720      1726      1727
      1726      1728      1726      1729      1720      1721      1721      1723
      1721      1722      1723      1724      1723      1725      1723      1735
      1735      1736      1735      1737      1735      1738      1738      1739
      1738      1740      1738      1741      1741      1742      1741      1743
      1741      1744      1744      1745      1744      1746      1744      1747
      1747      1748      1747      1749      1747      1750      1750      1751
      1750      1752      1750      1753      1753      1754      1753      1755
      1753      1756      1756      1757      1756      1758      1756      1759
      1759      1760      1759      1761      1759      1762      1762      1763
      1762      1764      1762      1765      1765      1766      1765      1767
      1765      1768      1768      1769      1768      1770      1768      1771
      1771      1772      1771      1773      1771      1774      1774      1775
      1774      1776      1774      1777      1729      1730      1730      1732
      1730      1731      1732      1733      1732      1734      1732      1778
      1778      1779      1778      1780      1778      1781      1781      1782
      1781      1783      1781      1784      1784      1785      1784      1786
      1784      1787      1787      1788      1787      1789      1787      1790
      1790      1791      1790      1792      1790      1793      1793      1794
      1793      1795      1793      1796      1796      1797      1796      1798
      1796      1799      1799      1800      1799      1801      1799      1802
      1802      1803      1802      1804      1802      1805      1805      1806
      1805      1807      1805      1808      1808      1809      1808      1810
      1808      1811      1811      1812      1811      1813      1811      1814
      1814      1815      1814      1816      1814      1817      1817      1818
      1817      1819      1817      1820      1821      1822      1821      1826
      1821      1830      1822      1823      1822      1824      1822      1825
      1826      1827      1826      1828      1826      1829      1830      1831
      1830      1832      1830      1833      1821      1834      1834      1835
      1834      1836      1834      1837      1837      1838      1837      1839
      1837      1844      1844      1840      1840      1843      1840      1841
      1840      1842      1845      1846      1845      1847      1845      1848
      1845      1843      1848      1849      1848      1856      1848      1850
      1856      1857      1856      1858      1856      1859      1850      1851
      1851      1853      1851      1852      1853      1854      1853      1855
      1853      1865      1865      1866      1865      1867      1865      1868
      1868      1869      1868      1870      1868      1871      1871      1872
      1871      1873      1871      1874      1874      1875      1874      1876
      1874      1877      1877      1878      1877      1879      1877      1880
      1880      1881      1880      1882      1880      1883      1883      1884
      1883      1885      1883      1886      1886      1887      1886      1888
      1886      1889      1889      1890      1889      1891      1889      1892
      1892      1893      1892      1894      1892      1895      1895      1896
      1895      1897      1895      1898      1898      1899      1898      1900
      1898      1901      1901      1902      1901      1903      1901      1904
      1904      1905      1904      1906      1904      1907      1859      1860
      1860      1862      1860      1861      1862      1863      1862      1864
      1862      1908      1908      1909      1908      1910      1908      1911
      1911      1912      1911      1913      1911      1914      1914      1915
      1914      1916      1914      1917      1917      1918      1917      1919
      1917      1920      1920      1921      1920      1922      1920      1923
      1923      1924      1923      1925      1923      1926      1926      1927
      1926      1928      1926      1929      1929      1930      1929      1931
      1929      1932      1932      1933      1932      1934      1932      1935
      1935      1936      1935      1937      1935      1938      1938      1939
      1938      1940      1938      1941      1941      1942      1941      1943
      1941      1944      1944      1945      1944      1946      1944      1947
      1947      1948      1947      1949      1947      1950      1951      1952
      1951      1956      1951      1960      1952      1953      1952      1954
      1952      1955      1956      1957      1956      1958      1956      1959
      1960      1961      1960      1962      1960      1963      1951      1964
      1964      1965      1964      1966      1964      1967      1967      1968
      1967      1969      1967      1974      1974      1970      1970      1973
      1970      1971      1970      1972      1975      1976      1975      1977
      1975      1978      1975      1973      1978      1979      1978      1986
      1978      1980      1986      1987      1986      1988      1986      1989
      1980      1981      1981      1983      1981      1982      1983      1984
      1983      1985      1983      1995      1995      1996      1995      1997
      1995      1998      1998      1999      1998      2000      1998      2001
      2001      2002      2001      2003      2001      2004      2004      2005
      2004      2006      2004      2007      2007      2008      2007      2009
      2007      2010      2010      2011      2010      2012      2010      2013
      2013      2014      2013      2015      2013      2016      2016      2017
      2016      2018      2016      2019      2019      2020      2019      2021
      2019      2022      2022      2023      2022      2024      2022      2025
      2025      2026      2025      2027      2025      2028      2028      2029
      2028      2030      2028      2031      2031      2032      2031      2033
      2031      2034      2034      2035      2034      2036      2034      2037
      1989      1990      1990      1992      1990      1991      1992      1993
      1992      1994      1992      2038      2038      2039      2038      2040
      2038      2041      2041      2042      2041      2043      2041      2044
      2044      2045      2044      2046      2044      2047      2047      2048
      2047      2049      2047      2050      2050      2051      2050      2052
      2050      2053      2053      2054      2053      2055      2053      2056
      2056      2057      2056      2058      2056      2059      2059      2060
      2059      2061      2059      2062      2062      2063      2062      2064
      2062      2065      2065      2066      2065      2067      2065      2068
      2068      2069      2068      2070      2068      2071      2071      2072
      2071      2073      2071      2074      2074      2075      2074      2076
      2074      2077      2077      2078      2077      2079      2077      2080
      2081      2082      2081      2086      2081      2090      2082      2083
      2082      2084      2082      2085      2086      2087      2086      2088
      2086      2089      2090      2091      2090      2092      2090      2093
      2081      2094      2094      2095      2094      2096      2094      2097
      2097      2098      2097      2099      2097      2104      2104      2100
      2100      2103      2100      2101      2100      2102      2105      2106
      2105      2107      2105      2108      2105      2103      2108      2109
      2108      2116      2108      2110      2116      2117      2116      2118
      2116      2119      2110      2111      2111      2113      2111      2112
      2113      2114      2113      2115      2113      2125      2125      2126
      2125      2127      2125      2128      2128      2129      2128      2130
      2128      2131      2131      2132      2131      2133      2131      2134
      2134      2135      2134      2136      2134      2137      2137      2138
      2137      2139      2137      2140      2140      2141      2140      2142
      2140      2143      2143      2144      2143      2145      2143      2146
      2146      2147      2146      2148      2146      2149      2149      2150
      2149      2151      2149      2152      2152      2153      2152      2154
      2152      2155      2155      2156      2155      2157      2155      2158
      2158      2159      2158      2160      2158      2161      2161      2162
      2161      2163      2161      2164      2164      2165      2164      2166
      2164      2167      2119      2120      2120      2122      2120      2121
      2122      2123      2122      2124      2122      2168      2168      2169
      2168      2170      2168      2171      2171      2172      2171      2173
      2171      2174      2174      2175      2174      2176      2174      2177
      2177      2178      2177      2179      2177      2180      2180      2181
      2180      2182      2180      2183      2183      2184      2183      2185
      2183      2186      2186      2187      2186      2188      2186      2189
      2189      2190      2189      2191      2189      2192      2192      2193
      2192      2194      2192      2195      2195      2196      2195      2197
      2195      2198      2198      2199      2198      2200      2198      2201
      2201      2202      2201      2203      2201      2204      2204      2205
      2204      2206      2204      2207      2207      2208      2207      2209
      2207      2210      2211      2212      2211      2216      2211      2220
      2212      2213      2212      2214      2212      2215      2216      2217
      2216      2218      2216      2219      2220      2221      2220      2222
      2220      2223      2211      2224      2224      2225      2224      2226
      2224      2227      2227      2228      2227      2229      2227      2234
      2234      2230      2230      2233      2230      2231      2230      2232
      2235      2236      2235      2237      2235      2238      2235      2233
      2238      2239      2238      2246      2238      2240      2246      2247
      2246      2248      2246      2249      2240      2241      2241      2243
      2241      2242      2243      2244      2243      2245      2243      2255
      2255      2256      2255      2257      2255      2258      2258      2259
      2258      2260      2258      2261      2261      2262      2261      2263
      2261      2264      2264      2265      2264      2266      2264      2267
      2267      2268      2267      2269      2267      2270      2270      2271
      2270      2272      2270      2273      2273      2274      2273      2275
      2273      2276      2276      2277      2276      2278      2276      2279
      2279      2280      2279      2281      2279      2282      2282      2283
      2282      2284      2282      2285      2285      2286      2285      2287
      2285      2288      2288      2289      2288      2290      2288      2291
      2291      2292      2291      2293      2291      2294      2294      2295
      2294      2296      2294      2297      2249      2250      2250      2252
      2250      2251      2252      2253      2252      2254      2252      2298
      2298      2299      2298      2300      2298      2301      2301      2302
      2301      2303      2301      2304      2304      2305      2304      2306
      2304      2307      2307      2308      2307      2309      2307      2310
      2310      2311      2310      2312      2310      2313      2313      2314
      2313      2315      2313      2316      2316      2317      2316      2318
      2316      2319      2319      2320      2319      2321      2319      2322
      2322      2323      2322      2324      2322      2325      2325      2326
      2325      2327      2325      2328      2328      2329      2328      2330
      2328      2331      2331      2332      2331      2333      2331      2334
      2334      2335      2334      2336      2334      2337      2337      2338
      2337      2339      2337      2340      2341      2342      2341      2346
      2341      2350      2342      2343      2342      2344      2342      2345
      2346      2347      2346      2348      2346      2349      2350      2351
      2350      2352      2350      2353      2341      2354      2354      2355
      2354      2356      2354      2357      2357      2358      2357      2359
      2357      2364      2364      2360      2360      2363      2360      2361
      2360      2362      2365      2366      2365      2367      2365      2368
      2365      2363      2368      2369      2368      2376      2368      2370
      2376      2377      2376      2378      2376      2379      2370      2371
      2371      2373      2371      2372      2373      2374      2373      2375
      2373      2385      2385      2386      2385      2387      2385      2388
      2388      2389      2388      2390      2388      2391      2391      2392
      2391      2393      2391      2394      2394      2395      2394      2396
      2394      2397      2397      2398      2397      2399      2397      2400
      2400      2401      2400      2402      2400      2403      2403      2404
      2403      2405      2403      2406      2406      2407      2406      2408
      2406      2409      2409      2410      2409      2411      2409      2412
      2412      2413      2412      2414      2412      2415      2415      2416
      2415      2417      2415      2418      2418      2419      2418      2420
      2418      2421      2421      2422      2421      2423      2421      2424
      2424      2425      2424      2426      2424      2427      2379      2380
      2380      2382      2380      2381      2382      2383      2382      2384
      2382      2428      2428      2429      2428      2430      2428      2431
      2431      2432      2431      2433      2431      2434      2434      2435
      2434      2436      2434      2437      2437      2438      2437      2439
      2437      2440      2440      2441      2440      2442      2440      2443
      2443      2444      2443      2445      2443      2446      2446      2447
      2446      2448      2446      2449      2449      2450      2449      2451
      2449      2452      2452      2453      2452      2454      2452      2455
      2455      2456      2455      2457      2455      2458      2458      2459
      2458      2460      2458      2461      2461      2462      2461      2463
      2461      2464      2464      2465      2464      2466      2464      2467
      2467      2468      2467      2469      2467      2470      2471      2472
      2471      2476      2471      2480      2472      2473      2472      2474
      2472      2475      2476      2477      2476      2478      2476      2479
      2480      2481      2480      2482      2480      2483      2471      2484
      2484      2485      2484      2486      2484      2487      2487      2488
      2487      2489      2487      2494      2494      2490      2490      2493
      2490      2491      2490      2492      2495      2496      2495      2497
      2495      2498      2495      2493      2498      2499      2498      2506
      2498      2500      2506      2507      2506      2508      2506      2509
      2500      2501      2501      2503      2501      2502      2503      2504
      2503      2505      2503      2515      2515      2516      2515      2517
      2515      2518      2518      2519      2518      2520      2518      2521
      2521      2522      2521      2523      2521      2524      2524      2525
      2524      2526      2524      2527      2527      2528      2527      2529
      2527      2530      2530      2531      2530      2532      2530      2533
      2533      2534      2533      2535      2533      2536      2536      2537
      2536      2538      2536      2539      2539      2540      2539      2541
      2539      2542      2542      2543      2542      2544      2542      2545
      2545      2546      2545      2547      2545      2548      2548      2549
      2548      2550      2548      2551      2551      2552      2551      2553
      2551      2554      2554      2555      2554      2556      2554      2557
      2509      2510      2510      2512      2510      2511      2512      2513
      2512      2514      2512      2558      2558      2559      2558      2560
      2558      2561      2561      2562      2561      2563      2561      2564
      2564      2565      2564      2566      2564      2567      2567      2568
      2567      2569      2567      2570      2570      2571      2570      2572
      2570      2573      2573      2574      2573      2575      2573      2576
      2576      2577      2576      2578      2576      2579      2579      2580
      2579      2581      2579      2582      2582      2583      2582      2584
      2582      2585      2585      2586      2585      2587      2585      2588
      2588      2589      2588      2590      2588      2591      2591      2592
      2591      2593      2591      2594      2594      2595      2594      2596
      2594      2597      2597      2598      2597      2599      2597      2600
      2601      2602      2601      2606      2601      2610      2602      2603
      2602      2604      2602      2605      2606      2607      2606      2608
      2606      2609      2610      2611      2610      2612      2610      2613
      2601      2614      2614      2615      2614      2616      2614      2617
      2617      2618      2617      2619      2617      2624      2624      2620
      2620      2623      2620      2621      2620      2622      2625      2626
      2625      2627      2625      2628      2625      2623      2628      2629
      2628      2636      2628      2630      2636      2637      2636      2638
      2636      2639      2630      2631      2631      2633      2631      2632
      2633      2634      2633      2635      2633      2645      2645      2646
      2645      2647      2645      2648      2648      2649      2648      2650
      2648      2651      2651      2652      2651      2653      2651      2654
      2654      2655      2654      2656      2654      2657      2657      2658
      2657      2659      2657      2660      2660      2661      2660      2662
      2660      2663      2663      2664      2663      2665      2663      2666
      2666      2667      2666      2668      2666      2669      2669      2670
      2669      2671      2669      2672      2672      2673      2672      2674
      2672      2675      2675      2676      2675      2677      2675      2678
      2678      2679      2678      2680      2678      2681      2681      2682
      2681      2683      2681      2684      2684      2685      2684      2686
      2684      2687      2639      2640      2640      2642      2640      2641
      2642      2643      2642      2644      2642      2688      2688      2689
      2688      2690      2688      2691      2691      2692      2691      2693
      2691      2694      2694      2695      2694      2696      2694      2697
      2697      2698      2697      2699      2697      2700      2700      2701
      2700      2702      2700      2703      2703      2704      2703      2705
      2703      2706      2706      2707      2706      2708      2706      2709
      2709      2710      2709      2711      2709      2712      2712      2713
      2712      2714      2712      2715      2715      2716      2715      2717
      2715      2718      2718      2719      2718      2720      2718      2721
      2721      2722      2721      2723      2721      2724      2724      2725
      2724      2726      2724      2727      2727      2728      2727      2729
      2727      2730      2731      2732      2731      2736      2731      2740
      2732      2733      2732      2734      2732      2735      2736      2737
      2736      2738      2736      2739      2740      2741      2740      2742
      2740      2743      2731      2744      2744      2745      2744      2746
      2744      2747      2747      2748      2747      2749      2747      2754
      2754      2750      2750      2753      2750      2751      2750      2752
      2755      2756      2755      2757      2755      2758      2755      2753
      2758      2759      2758      2766      2758      2760      2766      2767
      2766      2768      2766      2769      2760      2761      2761      2763
      2761      2762      2763      2764      2763      2765      2763      2775
      2775      2776      2775      2777      2775      2778      2778      2779
      2778      2780      2778      2781      2781      2782      2781      2783
      2781      2784      2784      2785      2784      2786      2784      2787
      2787      2788      2787      2789      2787      2790      2790      2791
      2790      2792      2790      2793      2793      2794      2793      2795
      2793      2796      2796      2797      2796      2798      2796      2799
      2799      2800      2799      2801      2799      2802      2802      2803
      2802      2804      2802      2805      2805      2806      2805      2807
      2805      2808      2808      2809      2808      2810      2808      2811
      2811      2812      2811      2813      2811      2814      2814      2815
      2814      2816      2814      2817      2769      2770      2770      2772
      2770      2771      2772      2773      2772      2774      2772      2818
      2818      2819      2818      2820      2818      2821      2821      2822
      2821      2823      2821      2824      2824      2825      2824      2826
      2824      2827      2827      2828      2827      2829      2827      2830
      2830      2831      2830      2832      2830      2833      2833      2834
      2833      2835      2833      2836      2836      2837      2836      2838
      2836      2839      2839      2840      2839      2841      2839      2842
      2842      2843      2842      2844      2842      2845      2845      2846
      2845      2847      2845      2848      2848      2849      2848      2850
      2848      2851      2851      2852      2851      2853      2851      2854
      2854      2855      2854      2856      2854      2857      2857      2858
      2857      2859      2857      2860      2861      2862      2861      2866
      2861      2870      2862      2863      2862      2864      2862      2865
      2866      2867      2866      2868      2866      2869      2870      2871
      2870      2872      2870      2873      2861      2874      2874      2875
      2874      2876      2874      2877      2877      2878      2877      2879
      2877      2884      2884      2880      2880      2883      2880      2881
      2880      2882      2885      2886      2885      2887      2885      2888
      2885      2883      2888      2889      2888      2896      2888      2890
      2896      2897      2896      2898      2896      2899      2890      2891
      2891      2893      2891      2892      2893      2894      2893      2895
      2893      2905      2905      2906      2905      2907      2905      2908
      2908      2909      2908      2910      2908      2911      2911      2912
      2911      2913      2911      2914      2914      2915      2914      2916
      2914      2917      2917      2918      2917      2919      2917      2920
      2920      2921      2920      2922      2920      2923      2923      2924
      2923      2925      2923      2926      2926      2927      2926      2928
      2926      2929      2929      2930      2929      2931      2929      2932
      2932      2933      2932      2934      2932      2935      2935      2936
      2935      2937      2935      2938      2938      2939      2938      2940
      2938      2941      2941      2942      2941      2943      2941      2944
      2944      2945      2944      2946      2944      2947      2899      2900
      2900      2902      2900      2901      2902      2903      2902      2904
      2902      2948      2948      2949      2948      2950      2948      2951
      2951      2952      2951      2953      2951      2954      2954      2955
      2954      2956      2954      2957      2957      2958      2957      2959
      2957      2960      2960      2961      2960      2962      2960      2963
      2963      2964      2963      2965      2963      2966      2966      2967
      2966      2968      2966      2969      2969      2970      2969      2971
      2969      2972      2972      2973      2972      2974      2972      2975
      2975      2976      2975      2977      2975      2978      2978      2979
      2978      2980      2978      2981      2981      2982      2981      2983
      2981      2984      2984      2985      2984      2986      2984      2987
      2987      2988      2987      2989      2987      2990      2991      2992
      2991      2996      2991      3000      2992      2993      2992      2994
      2992      2995      2996      2997      2996      2998      2996      2999
      3000      3001      3000      3002      3000      3003      2991      3004
      3004      3005      3004      3006      3004      3007      3007      3008
      3007      3009      3007      3014      3014      3010      3010      3013
      3010      3011      3010      3012      3015      3016      3015      3017
      3015      3018      3015      3013      3018      3019      3018      3026
      3018      3020      3026      3027      3026      3028      3026      3029
      3020      3021      3021      3023      3021      3022      3023      3024
      3023      3025      3023      3035      3035      3036      3035      3037
      3035      3038      3038      3039      3038      3040      3038      3041
      3041      3042      3041      3043      3041      3044      3044      3045
      3044      3046      3044      3047      3047      3048      3047      3049
      3047      3050      3050      3051      3050      3052      3050      3053
      3053      3054      3053      3055      3053      3056      3056      3057
      3056      3058      3056      3059      3059      3060      3059      3061
      3059      3062      3062      3063      3062      3064      3062      3065
      3065      3066      3065      3067      3065      3068      3068      3069
      3068      3070      3068      3071      3071      3072      3071      3073
      3071      3074      3074      3075      3074      3076      3074      3077
      3029      3030      3030      3032      3030      3031      3032      3033
      3032      3034      3032      3078      3078      3079      3078      3080
      3078      3081      3081      3082      3081      3083      3081      3084
      3084      3085      3084      3086      3084      3087      3087      3088
      3087      3089      3087      3090      3090      3091      3090      3092
      3090      3093      3093      3094      3093      3095      3093      3096
      3096      3097      3096      3098      3096      3099      3099      3100
      3099      3101      3099      3102      3102      3103      3102      3104
      3102      3105      3105      3106      3105      3107      3105      3108
      3108      3109      3108      3110      3108      3111      3111      3112
      3111      3113      3111      3114      3114      3115      3114      3116
      3114      3117      3117      3118      3117      3119      3117      3120
      3121      3122      3121      3126      3121      3130      3122      3123
      3122      3124      3122      3125      3126      3127      3126      3128
      3126      3129      3130      3131      3130      3132      3130      3133
      3121      3134      3134      3135      3134      3136      3134      3137
      3137      3138      3137      3139      3137      3144      3144      3140
      3140      3143      3140      3141      3140      3142      3145      3146
      3145      3147      3145      3148      3145      3143      3148      3149
      3148      3156      3148      3150      3156      3157      3156      3158
      3156      3159      3150      3151      3151      3153      3151      3152
      3153      3154      3153      3155      3153      3165      3165      3166
      3165      3167      3165      3168      3168      3169      3168      3170
      3168      3171      3171      3172      3171      3173      3171      3174
      3174      3175      3174      3176      3174      3177      3177      3178
      3177      3179      3177      3180      3180      3181      3180      3182
      3180      3183      3183      3184      3183      3185      3183      3186
      3186      3187      3186      3188      3186      3189      3189      3190
      3189      3191      3189      3192      3192      3193      3192      3194
      3192      3195      3195      3196      3195      3197      3195      3198
      3198      3199      3198      3200      3198      3201      3201      3202
      3201      3203      3201      3204      3204      3205      3204      3206
      3204      3207      3159      3160      3160      3162      3160      3161
      3162      3163      3162      3164      3162      3208      3208      3209
      3208      3210      3208      3211      3211      3212      3211      3213
      3211      3214      3214      3215      3214      3216      3214      3217
      3217      3218      3217      3219      3217      3220      3220      3221
      3220      3222      3220      3223      3223      3224      3223      3225
      3223      3226      3226      3227      3226      3228      3226      3229
      3229      3230      3229      3231      3229      3232      3232      3233
      3232      3234      3232      3235      3235      3236      3235      3237
      3235      3238      3238      3239      3238      3240      3238      3241
      3241      3242      3241      3243      3241      3244      3244      3245
      3244      3246      3244      3247      3247      3248      3247      3249
      3247      3250      3251      3252      3251      3256      3251      3260
      3252      3253      3252      3254      3252      3255      3256      3257
      3256      3258      3256      3259      3260      3261      3260      3262
      3260      3263      3251      3264      3264      3265      3264      3266
      3264      3267      3267      3268      3267      3269      3267      3274
      3274      3270      3270      3273      3270      3271      3270      3272
      3275      3276      3275      3277      3275      3278      3275      3273
      3278      3279      3278      3286      3278      3280      3286      3287
      3286      3288      3286      3289      3280      3281      3281      3283
      3281      3282      3283      3284      3283      3285      3283      3295
      3295      3296      3295      3297      3295      3298      3298      3299
      3298      3300      3298      3301      3301      3302      3301      3303
      3301      3304      3304      3305      3304      3306      3304      3307
      3307      3308      3307      3309      3307      3310      3310      3311
      3310      3312      3310      3313      3313      3314      3313      3315
      3313      3316      3316      3317      3316      3318      3316      3319
      3319      3320      3319      3321      3319      3322      3322      3323
      3322      3324      3322      3325      3325      3326      3325      3327
      3325      3328      3328      3329      3328      3330      3328      3331
      3331      3332      3331      3333      3331      3334      3334      3335
      3334      3336      3334      3337      3289      3290      3290      3292
      3290      3291      3292      3293      3292      3294      3292      3338
      3338      3339      3338      3340      3338      3341      3341      3342
      3341      3343      3341      3344      3344      3345      3344      3346
      3344      3347      3347      3348      3347      3349      3347      3350
      3350      3351      3350      3352      3350      3353      3353      3354
      3353      3355      3353      3356      3356      3357      3356      3358
      3356      3359      3359      3360      3359      3361      3359      3362
      3362      3363      3362      3364      3362      3365      3365      3366
      3365      3367      3365      3368      3368      3369      3368      3370
      3368      3371      3371      3372      3371      3373      3371      3374
      3374      3375      3374      3376      3374      3377      3377      3378
      3377      3379      3377      3380      3381      3382      3381      3386
      3381      3390      3382      3383      3382      3384      3382      3385
      3386      3387      3386      3388      3386      3389      3390      3391
      3390      3392      3390      3393      3381      3394      3394      3395
      3394      3396      3394      3397      3397      3398      3397      3399
      3397      3404      3404      3400      3400      3403      3400      3401
      3400      3402      3405      3406      3405      3407      3405      3408
      3405      3403      3408      3409      3408      3416      3408      3410
      3416      3417      3416      3418      3416      3419      3410      3411
      3411      3413      3411      3412      3413      3414      3413      3415
      3413      3425      3425      3426      3425      3427      3425      3428
      3428      3429      3428      3430      3428      3431      3431      3432
      3431      3433      3431      3434      3434      3435      3434      3436
      3434      3437      3437      3438      3437      3439      3437      3440
      3440      3441      3440      3442      3440      3443      3443      3444
      3443      3445      3443      3446      3446      3447      3446      3448
      3446      3449      3449      3450      3449      3451      3449      3452
      3452      3453      3452      3454      3452      3455      3455      3456
      3455      3457      3455      3458      3458      3459      3458      3460
      3458      3461      3461      3462      3461      3463      3461      3464
      3464      3465      3464      3466      3464      3467      3419      3420
      3420      3422      3420      3421      3422      3423      3422      3424
      3422      3468      3468      3469      3468      3470      3468      3471
      3471      3472      3471      3473      3471      3474      3474      3475
      3474      3476      3474      3477      3477      3478      3477      3479
      3477      3480      3480      3481      3480      3482      3480      3483
      3483      3484      3483      3485      3483      3486      3486      3487
      3486      3488      3486      3489      3489      3490      3489      3491
      3489      3492      3492      3493      3492      3494      3492      3495
      3495      3496      3495      3497      3495      3498      3498      3499
      3498      3500      3498      3501      3501      3502      3501      3503
      3501      3504      3504      3505      3504      3506      3504      3507
      3507      3508      3507      3509      3507      3510      3511      3512
      3511      3516      3511      3520      3512      3513      3512      3514
      3512      3515      3516      3517      3516      3518      3516      3519
      3520      3521      3520      3522      3520      3523      3511      3524
      3524      3525      3524      3526      3524      3527      3527      3528
      3527      3529      3527      3534      3534      3530      3530      3533
      3530      3531      3530      3532      3535      3536      3535      3537
      3535      3538      3535      3533      3538      3539      3538      3546
      3538      3540      3546      3547      3546      3548      3546      3549
      3540      3541      3541      3543      3541      3542      3543      3544
      3543      3545      3543      3555      3555      3556      3555      3557
      3555      3558      3558      3559      3558      3560      3558      3561
      3561      3562      3561      3563      3561      3564      3564      3565
      3564      3566      3564      3567      3567      3568      3567      3569
      3567      3570      3570      3571      3570      3572      3570      3573
      3573      3574      3573      3575      3573      3576      3576      3577
      3576      3578      3576      3579      3579      3580      3579      3581
      3579      3582      3582      3583      3582      3584      3582      3585
      3585      3586      3585      3587      3585      3588      3588      3589
      3588      3590      3588      3591      3591      3592      3591      3593
      3591      3594      3594      3595      3594      3596      3594      3597
      3549      3550      3550      3552      3550      3551      3552      3553
      3552      3554      3552      3598      3598      3599      3598      3600
      3598      3601      3601      3602      3601      3603      3601      3604
      3604      3605      3604      3606      3604      3607      3607      3608
      3607      3609      3607      3610      3610      3611      3610      3612
      3610      3613      3613      3614      3613      3615      3613      3616
      3616      3617      3616      3618      3616      3619      3619      3620
      3619      3621      3619      3622      3622      3623      3622      3624
      3622      3625      3625      3626      3625      3627      3625      3628
      3628      3629      3628      3630      3628      3631      3631      3632
      3631      3633      3631      3634      3634      3635      3634      3636
      3634      3637      3637      3638      3637      3639      3637      3640
      3641      3642      3641      3646      3641      3650      3642      3643
      3642      3644      3642      3645      3646      3647      3646      3648
      3646      3649      3650      3651      3650      3652      3650      3653
      3641      3654      3654      3655      3654      3656      3654      3657
      3657      3658      3657      3659      3657      3664      3664      3660
      3660      3663      3660      3661      3660      3662      3665      3666
      3665      3667      3665      3668      3665      3663      3668      3669
      3668      3676      3668      3670      3676      3677      3676      3678
      3676      3679      3670      3671      3671      3673      3671      3672
      3673      3674      3673      3675      3673      3685      3685      3686
      3685      3687      3685      3688      3688      3689      3688      3690
      3688      3691      3691      3692      3691      3693      3691      3694
      3694      3695      3694      3696      3694      3697      3697      3698
      3697      3699      3697      3700      3700      3701      3700      3702
      3700      3703      3703      3704      3703      3705      3703      3706
      3706      3707      3706      3708      3706      3709      3709      3710
      3709      3711      3709      3712      3712      3713      3712      3714
      3712      3715      3715      3716      3715      3717      3715      3718
      3718      3719      3718      3720      3718      3721      3721      3722
      3721      3723      3721      3724      3724      3725      3724      3726
      3724      3727      3679      3680      3680      3682      3680      3681
      3682      3683      3682      3684      3682      3728      3728      3729
      3728      3730      3728      3731      3731      3732      3731      3733
      3731      3734      3734      3735      3734      3736      3734      3737
      3737      3738      3737      3739      3737      3740      3740      3741
      3740      3742      3740      3743      3743      3744      3743      3745
      3743      3746      3746      3747      3746      3748      3746      3749
      3749      3750      3749      3751      3749      3752      3752      3753
      3752      3754      3752      3755      3755      3756      3755      3757
      3755      3758      3758      3759      3758      3760      3758      3761
      3761      3762      3761      3763      3761      3764      3764      3765
      3764      3766      3764      3767      3767      3768      3767      3769
      3767      3770      3771      3772      3771      3776      3771      3780
      3772      3773      3772      3774      3772      3775      3776      3777
      3776      3778      3776      3779      3780      3781      3780      3782
      3780      3783      3771      3784      3784      3785      3784      3786
      3784      3787      3787      3788      3787      3789      3787      3794
      3794      3790      3790      3793      3790      3791      3790      3792
      3795      3796      3795      3797      3795      3798      3795      3793
      3798      3799      3798      3806      3798      3800      3806      3807
      3806      3808      3806      3809      3800      3801      3801      3803
      3801      3802      3803      3804      3803      3805      3803      3815
      3815      3816      3815      3817      3815      3818      3818      3819
      3818      3820      3818      3821      3821      3822      3821      3823
      3821      3824      3824      3825      3824      3826      3824      3827
      3827      3828      3827      3829      3827      3830      3830      3831
      3830      3832      3830      3833      3833      3834      3833      3835
      3833      3836      3836      3837      3836      3838      3836      3839
      3839      3840      3839      3841      3839      3842      3842      3843
      3842      3844      3842      3845      3845      3846      3845      3847
      3845      3848      3848      3849      3848      3850      3848      3851
      3851      3852      3851      3853      3851      3854      3854      3855
      3854      3856      3854      3857      3809      3810      3810      3812
      3810      3811      3812      3813      3812      3814      3812      3858
      3858      3859      3858      3860      3858      3861      3861      3862
      3861      3863      3861      3864      3864      3865      3864      3866
      3864      3867      3867      3868      3867      3869      3867      3870
      3870      3871      3870      3872      3870      3873      3873      3874
      3873      3875      3873      3876      3876      3877      3876      3878
      3876      3879      3879      3880      3879      3881      3879      3882
      3882      3883      3882      3884      3882      3885      3885      3886
      3885      3887      3885      3888      3888      3889      3888      3890
      3888      3891      3891      3892      3891      3893      3891      3894
      3894      3895      3894      3896      3894      3897      3897      3898
      3897      3899      3897      3900      3901      3902      3901      3906
      3901      3910      3902      3903      3902      3904      3902      3905
      3906      3907      3906      3908      3906      3909      3910      3911
      3910      3912      3910      3913      3901      3914      3914      3915
      3914      3916      3914      3917      3917      3918      3917      3919
      3917      3924      3924      3920      3920      3923      3920      3921
      3920      3922      3925      3926      3925      3927      3925      3928
      3925      3923      3928      3929      3928      3936      3928      3930
      3936      3937      3936      3938      3936      3939      3930      3931
      3931      3933      3931      3932      3933      3934      3933      3935
      3933      3945      3945      3946      3945      3947      3945      3948
      3948      3949      3948      3950      3948      3951      3951      3952
      3951      3953      3951      3954      3954      3955      3954      3956
      3954      3957      3957      3958      3957      3959      3957      3960
      3960      3961      3960      3962      3960      3963      3963      3964
      3963      3965      3963      3966      3966      3967      3966      3968
      3966      3969      3969      3970      3969      3971      3969      3972
      3972      3973      3972      3974      3972      3975      3975      3976
      3975      3977      3975      3978      3978      3979      3978      3980
      3978      3981      3981      3982      3981      3983      3981      3984
      3984      3985      3984      3986      3984      3987      3939      3940
      3940      3942      3940      3941      3942      3943      3942      3944
      3942      3988      3988      3989      3988      3990      3988      3991
      3991      3992      3991      3993      3991      3994      3994      3995
      3994      3996      3994      3997      3997      3998      3997      3999
      3997      4000      4000      4001      4000      4002      4000      4003
      4003      4004      4003      4005      4003      4006      4006      4007
      4006      4008      4006      4009      4009      4010      4009      4011
      4009      4012      4012      4013      4012      4014      4012      4015
      4015      4016      4015      4017      4015      4018      4018      4019
      4018      4020      4018      4021      4021      4022      4021      4023
      4021      4024      4024      4025      4024      4026      4024      4027
      4027      4028      4027      4029      4027      4030      4031      4032
      4031      4036      4031      4040      4032      4033      4032      4034
      4032      4035      4036      4037      4036      4038      4036      4039
      4040      4041      4040      4042      4040      4043      4031      4044
      4044      4045      4044      4046      4044      4047      4047      4048
      4047      4049      4047      4054      4054      4050      4050      4053
      4050      4051      4050      4052      4055      4056      4055      4057
      4055      4058      4055      4053      4058      4059      4058      4066
      4058      4060      4066      4067      4066      4068      4066      4069
      4060      4061      4061      4063      4061      4062      4063      4064
      4063      4065      4063      4075      4075      4076      4075      4077
      4075      4078      4078      4079      4078      4080      4078      4081
      4081      4082      4081      4083      4081      4084      4084      4085
      4084      4086      4084      4087      4087      4088      4087      4089
      4087      4090      4090      4091      4090      4092      4090      4093
      4093      4094      4093      4095      4093      4096      4096      4097
      4096      4098      4096      4099      4099      4100      4099      4101
      4099      4102      4102      4103      4102      4104      4102      4105
      4105      4106      4105      4107      4105      4108      4108      4109
      4108      4110      4108      4111      4111      4112      4111      4113
      4111      4114      4114      4115      4114      4116      4114      4117
      4069      4070      4070      4072      4070      4071      4072      4073
      4072      4074      4072      4118      4118      4119      4118      4120
      4118      4121      4121      4122      4121      4123      4121      4124
      4124      4125      4124      4126      4124      4127      4127      4128
      4127      4129      4127      4130      4130      4131      4130      4132
      4130      4133      4133      4134      4133      4135      4133      4136
      4136      4137      4136      4138      4136      4139      4139      4140
      4139      4141      4139      4142      4142      4143      4142      4144
      4142      4145      4145      4146      4145      4147      4145      4148
      4148      4149      4148      4150      4148      4151      4151      4152
      4151      4153      4151      4154      4154      4155      4154      4156
      4154      4157      4157      4158      4157      4159      4157      4160
      4161      4162      4161      4166      4161      4170      4162      4163
      4162      4164      4162      4165      4166      4167      4166      4168
      4166      4169      4170      4171      4170      4172      4170      4173
      4161      4174      4174      4175      4174      4176      4174      4177
      4177      4178      4177      4179      4177      4184      4184      4180
      4180      4183      4180      4181      4180      4182      4185      4186
      4185      4187      4185      4188      4185      4183      4188      4189
      4188      4196      4188      4190      4196      4197      4196      4198
      4196      4199      4190      4191      4191      4193      4191      4192
      4193      4194      4193      4195      4193      4205      4205      4206
      4205      4207      4205      4208      4208      4209      4208      4210
      4208      4211      4211      4212      4211      4213      4211      4214
      4214      4215      4214      4216      4214      4217      4217      4218
      4217      4219      4217      4220      4220      4221      4220      4222
      4220      4223      4223      4224      4223      4225      4223      4226
      4226      4227      4226      4228      4226      4229      4229      4230
      4229      4231      4229      4232      4232      4233      4232      4234
      4232      4235      4235      4236      4235      4237      4235      4238
      4238      4239      4238      4240      4238      4241      4241      4242
      4241      4243      4241      4244      4244      4245      4244      4246
      4244      4247      4199      4200      4200      4202      4200      4201
      4202      4203      4202      4204      4202      4248      4248      4249
      4248      4250      4248      4251      4251      4252      4251      4253
      4251      4254      4254      4255      4254      4256      4254      4257
      4257      4258      4257      4259      4257      4260      4260      4261
      4260      4262      4260      4263      4263      4264      4263      4265
      4263      4266      4266      4267      4266      4268      4266      4269
      4269      4270      4269      4271      4269      4272      4272      4273
      4272      4274      4272      4275      4275      4276      4275      4277
      4275      4278      4278      4279      4278      4280      4278      4281
      4281      4282      4281      4283      4281      4284      4284      4285
      4284      4286      4284      4287      4287      4288      4287      4289
      4287      4290      4291      4292      4291      4296      4291      4300
      4292      4293      4292      4294      4292      4295      4296      4297
      4296      4298      4296      4299      4300      4301      4300      4302
      4300      4303      4291      4304      4304      4305      4304      4306
      4304      4307      4307      4308      4307      4309      4307      4314
      4314      4310      4310      4313      4310      4311      4310      4312
      4315      4316      4315      4317      4315      4318      4315      4313
      4318      4319      4318      4326      4318      4320      4326      4327
      4326      4328      4326      4329      4320      4321      4321      4323
      4321      4322      4323      4324      4323      4325      4323      4335
      4335      4336      4335      4337      4335      4338      4338      4339
      4338      4340      4338      4341      4341      4342      4341      4343
      4341      4344      4344      4345      4344      4346      4344      4347
      4347      4348      4347      4349      4347      4350      4350      4351
      4350      4352      4350      4353      4353      4354      4353      4355
      4353      4356      4356      4357      4356      4358      4356      4359
      4359      4360      4359      4361      4359      4362      4362      4363
      4362      4364      4362      4365      4365      4366      4365      4367
      4365      4368      4368      4369      4368      4370      4368      4371
      4371      4372      4371      4373      4371      4374      4374      4375
      4374      4376      4374      4377      4329      4330      4330      4332
      4330      4331      4332      4333      4332      4334      4332      4378
      4378      4379      4378      4380      4378      4381      4381      4382
      4381      4383      4381      4384      4384      4385      4384      4386
      4384      4387      4387      4388      4387      4389      4387      4390
      4390      4391      4390      4392      4390      4393      4393      4394
      4393      4395      4393      4396      4396      4397      4396      4398
      4396      4399      4399      4400      4399      4401      4399      4402
      4402      4403      4402      4404      4402      4405      4405      4406
      4405      4407      4405      4408      4408      4409      4408      4410
      4408      4411      4411      4412      4411      4413      4411      4414
      4414      4415      4414      4416      4414      4417      4417      4418
      4417      4419      4417      4420      4421      4422      4421      4426
      4421      4430      4422      4423      4422      4424      4422      4425
      4426      4427      4426      4428      4426      4429      4430      4431
      4430      4432      4430      4433      4421      4434      4434      4435
      4434      4436      4434      4437      4437      4438      4437      4439
      4437      4444      4444      4440      4440      4443      4440      4441
      4440      4442      4445      4446      4445      4447      4445      4448
      4445      4443      4448      4449      4448      4456      4448      4450
      4456      4457      4456      4458      4456      4459      4450      4451
      4451      4453      4451      4452      4453      4454      4453      4455
      4453      4465      4465      4466      4465      4467      4465      4468
      4468      4469      4468      4470      4468      4471      4471      4472
      4471      4473      4471      4474      4474      4475      4474      4476
      4474      4477      4477      4478      4477      4479      4477      4480
      4480      4481      4480      4482      4480      4483      4483      4484
      4483      4485      4483      4486      4486      4487      4486      4488
      4486      4489      4489      4490      4489      4491      4489      4492
      4492      4493      4492      4494      4492      4495      4495      4496
      4495      4497      4495      4498      4498      4499      4498      4500
      4498      4501      4501      4502      4501      4503      4501      4504
      4504      4505      4504      4506      4504      4507      4459      4460
      4460      4462      4460      4461      4462      4463      4462      4464
      4462      4508      4508      4509      4508      4510      4508      4511
      4511      4512      4511      4513      4511      4514      4514      4515
      4514      4516      4514      4517      4517      4518      4517      4519
      4517      4520      4520      4521      4520      4522      4520      4523
      4523      4524      4523      4525      4523      4526      4526      4527
      4526      4528      4526      4529      4529      4530      4529      4531
      4529      4532      4532      4533      4532      4534      4532      4535
      4535      4536      4535      4537      4535      4538      4538      4539
      4538      4540      4538      4541      4541      4542      4541      4543
      4541      4544      4544      4545      4544      4546      4544      4547
      4547      4548      4547      4549      4547      4550      4551      4552
      4551      4556      4551      4560      4552      4553      4552      4554
      4552      4555      4556      4557      4556      4558      4556      4559
      4560      4561      4560      4562      4560      4563      4551      4564
      4564      4565      4564      4566      4564      4567      4567      4568
      4567      4569      4567      4574      4574      4570      4570      4573
      4570      4571      4570      4572      4575      4576      4575      4577
      4575      4578      4575      4573      4578      4579      4578      4586
      4578      4580      4586      4587      4586      4588      4586      4589
      4580      4581      4581      4583      4581      4582      4583      4584
      4583      4585      4583      4595      4595      4596      4595      4597
      4595      4598      4598      4599      4598      4600      4598      4601
      4601      4602      4601      4603      4601      4604      4604      4605
      4604      4606      4604      4607      4607      4608      4607      4609
      4607      4610      4610      4611      4610      4612      4610      4613
      4613      4614      4613      4615      4613      4616      4616      4617
      4616      4618      4616      4619      4619      4620      4619      4621
      4619      4622      4622      4623      4622      4624      4622      4625
      4625      4626      4625      4627      4625      4628      4628      4629
      4628      4630      4628      4631      4631      4632      4631      4633
      4631      4634      4634      4635      4634      4636      4634      4637
      4589      4590      4590      4592      4590      4591      4592      4593
      4592      4594      4592      4638      4638      4639      4638      4640
      4638      4641      4641      4642      4641      4643      4641      4644
      4644      4645      4644      4646      4644      4647      4647      4648
      4647      4649      4647      4650      4650      4651      4650      4652
      4650      4653      4653      4654      4653      4655      4653      4656
      4656      4657      4656      4658      4656      4659      4659      4660
      4659      4661      4659      4662      4662      4663      4662      4664
      4662      4665      4665      4666      4665      4667      4665      4668
      4668      4669      4668      4670      4668      4671      4671      4672
      4671      4673      4671      4674      4674      4675      4674      4676
      4674      4677      4677      4678      4677      4679      4677      4680
      4681      4682      4681      4686      4681      4690      4682      4683
      4682      4684      4682      4685      4686      4687      4686      4688
      4686      4689      4690      4691      4690      4692      4690      4693
      4681      4694      4694      4695      4694      4696      4694      4697
      4697      4698      4697      4699      4697      4704      4704      4700
      4700      4703      4700      4701      4700      4702      4705      4706
      4705      4707      4705      4708      4705      4703      4708      4709
      4708      4716      4708      4710      4716      4717      4716      4718
      4716      4719      4710      4711      4711      4713      4711      4712
      4713      4714      4713      4715      4713      4725      4725      4726
      4725      4727      4725      4728      4728      4729      4728      4730
      4728      4731      4731      4732      4731      4733      4731      4734
      4734      4735      4734      4736      4734      4737      4737      4738
      4737      4739      4737      4740      4740      4741      4740      4742
      4740      4743      4743      4744      4743      4745      4743      4746
      4746      4747      4746      4748      4746      4749      4749      4750
      4749      4751      4749      4752      4752      4753      4752      4754
      4752      4755      4755      4756      4755      4757      4755      4758
      4758      4759      4758      4760      4758      4761      4761      4762
      4761      4763      4761      4764      4764      4765      4764      4766
      4764      4767      4719      4720      4720      4722      4720      4721
      4722      4723      4722      4724      4722      4768      4768      4769
      4768      4770      4768      4771      4771      4772      4771      4773
      4771      4774      4774      4775      4774      4776      4774      4777
      4777      4778      4777      4779      4777      4780      4780      4781
      4780      4782      4780      4783      4783      4784      4783      4785
      4783      4786      4786      4787      4786      4788      4786      4789
      4789      4790      4789      4791      4789      4792      4792      4793
      4792      4794      4792      4795      4795      4796      4795      4797
      4795      4798      4798      4799      4798      4800      4798      4801
      4801      4802      4801      4803      4801      4804      4804      4805
      4804      4806      4804      4807      4807      4808      4807      4809
      4807      4810      4811      4812      4811      4816      4811      4820
      4812      4813      4812      4814      4812      4815      4816      4817
      4816      4818      4816      4819      4820      4821      4820      4822
      4820      4823      4811      4824      4824      4825      4824      4826
      4824      4827      4827      4828      4827      4829      4827      4834
      4834      4830      4830      4833      4830      4831      4830      4832
      4835      4836      4835      4837      4835      4838      4835      4833
      4838      4839      4838      4846      4838      4840      4846      4847
      4846      4848      4846      4849      4840      4841      4841      4843
      4841      4842      4843      4844      4843      4845      4843      4855
      4855      4856      4855      4857      4855      4858      4858      4859
      4858      4860      4858      4861      4861      4862      4861      4863
      4861      4864      4864      4865      4864      4866      4864      4867
      4867      4868      4867      4869      4867      4870      4870      4871
      4870      4872      4870      4873      4873      4874      4873      4875
      4873      4876      4876      4877      4876      4878      4876      4879
      4879      4880      4879      4881      4879      4882      4882      4883
      4882      4884      4882      4885      4885      4886      4885      4887
      4885      4888      4888      4889      4888      4890      4888      4891
      4891      4892      4891      4893      4891      4894      4894      4895
      4894      4896      4894      4897      4849      4850      4850      4852
      4850      4851      4852      4853      4852      4854      4852      4898
      4898      4899      4898      4900      4898      4901      4901      4902
      4901      4903      4901      4904      4904      4905      4904      4906
      4904      4907      4907      4908      4907      4909      4907      4910
      4910      4911      4910      4912      4910      4913      4913      4914
      4913      4915      4913      4916      4916      4917      4916      4918
      4916      4919      4919      4920      4919      4921      4919      4922
      4922      4923      4922      4924      4922      4925      4925      4926
      4925      4927      4925      4928      4928      4929      4928      4930
      4928      4931      4931      4932      4931      4933      4931      4934
      4934      4935      4934      4936      4934      4937      4937      4938
      4937      4939      4937      4940      4941      4942      4941      4946
      4941      4950      4942      4943      4942      4944      4942      4945
      4946      4947      4946      4948      4946      4949      4950      4951
      4950      4952      4950      4953      4941      4954      4954      4955
      4954      4956      4954      4957      4957      4958      4957      4959
      4957      4964      4964      4960      4960      4963      4960      4961
      4960      4962      4965      4966      4965      4967      4965      4968
      4965      4963      4968      4969      4968      4976      4968      4970
      4976      4977      4976      4978      4976      4979      4970      4971
      4971      4973      4971      4972      4973      4974      4973      4975
      4973      4985      4985      4986      4985      4987      4985      4988
      4988      4989      4988      4990      4988      4991      4991      4992
      4991      4993      4991      4994      4994      4995      4994      4996
      4994      4997      4997      4998      4997      4999      4997      5000
      5000      5001      5000      5002      5000      5003      5003      5004
      5003      5005      5003      5006      5006      5007      5006      5008
      5006      5009      5009      5010      5009      5011      5009      5012
      5012      5013      5012      5014      5012      5015      5015      5016
      5015      5017      5015      5018      5018      5019      5018      5020
      5018      5021      5021      5022      5021      5023      5021      5024
      5024      5025      5024      5026      5024      5027      4979      4980
      4980      4982      4980      4981      4982      4983      4982      4984
      4982      5028      5028      5029      5028      5030      5028      5031
      5031      5032      5031      5033      5031      5034      5034      5035
      5034      5036      5034      5037      5037      5038      5037      5039
      5037      5040      5040      5041      5040      5042      5040      5043
      5043      5044      5043      5045      5043      5046      5046      5047
      5046      5048      5046      5049      5049      5050      5049      5051
      5049      5052      5052      5053      5052      5054      5052      5055
      5055      5056      5055      5057      5055      5058      5058      5059
      5058      5060      5058      5061      5061      5062      5061      5063
      5061      5064      5064      5065      5064      5066      5064      5067
      5067      5068      5067      5069      5067      5070      5071      5072
      5071      5076      5071      5080      5072      5073      5072      5074
      5072      5075      5076      5077      5076      5078      5076      5079
      5080      5081      5080      5082      5080      5083      5071      5084
      5084      5085      5084      5086      5084      5087      5087      5088
      5087      5089      5087      5094      5094      5090      5090      5093
      5090      5091      5090      5092      5095      5096      5095      5097
      5095      5098      5095      5093      5098      5099      5098      5106
      5098      5100      5106      5107      5106      5108      5106      5109
      5100      5101      5101      5103      5101      5102      5103      5104
      5103      5105      5103      5115      5115      5116      5115      5117
      5115      5118      5118      5119      5118      5120      5118      5121
      5121      5122      5121      5123      5121      5124      5124      5125
      5124      5126      5124      5127      5127      5128      5127      5129
      5127      5130      5130      5131      5130      5132      5130      5133
      5133      5134      5133      5135      5133      5136      5136      5137
      5136      5138      5136      5139      5139      5140      5139      5141
      5139      5142      5142      5143      5142      5144      5142      5145
      5145      5146      5145      5147      5145      5148      5148      5149
      5148      5150      5148      5151      5151      5152      5151      5153
      5151      5154      5154      5155      5154      5156      5154      5157
      5109      5110      5110      5112      5110      5111      5112      5113
      5112      5114      5112      5158      5158      5159      5158      5160
      5158      5161      5161      5162      5161      5163      5161      5164
      5164      5165      5164      5166      5164      5167      5167      5168
      5167      5169      5167      5170      5170      5171      5170      5172
      5170      5173      5173      5174      5173      5175      5173      5176
      5176      5177      5176      5178      5176      5179      5179      5180
      5179      5181      5179      5182      5182      5183      5182      5184
      5182      5185      5185      5186      5185      5187      5185      5188
      5188      5189      5188      5190      5188      5191      5191      5192
      5191      5193      5191      5194      5194      5195      5194      5196
      5194      5197      5197      5198      5197      5199      5197      5200
      5201      5202      5201      5206      5201      5210      5202      5203
      5202      5204      5202      5205      5206      5207      5206      5208
      5206      5209      5210      5211      5210      5212      5210      5213
      5201      5214      5214      5215      5214      5216      5214      5217
      5217      5218      5217      5219      5217      5224      5224      5220
      5220      5223      5220      5221      5220      5222      5225      5226
      5225      5227      5225      5228      5225      5223      5228      5229
      5228      5236      5228      5230      5236      5237      5236      5238
      5236      5239      5230      5231      5231      5233      5231      5232
      5233      5234      5233      5235      5233      5245      5245      5246
      5245      5247      5245      5248      5248      5249      5248      5250
      5248      5251      5251      5252      5251      5253      5251      5254
      5254      5255      5254      5256      5254      5257      5257      5258
      5257      5259      5257      5260      5260      5261      5260      5262
      5260      5263      5263      5264      5263      5265      5263      5266
      5266      5267      5266      5268      5266      5269      5269      5270
      5269      5271      5269      5272      5272      5273      5272      5274
      5272      5275      5275      5276      5275      5277      5275      5278
      5278      5279      5278      5280      5278      5281      5281      5282
      5281      5283      5281      5284      5284      5285      5284      5286
      5284      5287      5239      5240      5240      5242      5240      5241
      5242      5243      5242      5244      5242      5288      5288      5289
      5288      5290      5288      5291      5291      5292      5291      5293
      5291      5294      5294      5295      5294      5296      5294      5297
      5297      5298      5297      5299      5297      5300      5300      5301
      5300      5302      5300      5303      5303      5304      5303      5305
      5303      5306      5306      5307      5306      5308      5306      5309
      5309      5310      5309      5311      5309      5312      5312      5313
      5312      5314      5312      5315      5315      5316      5315      5317
      5315      5318      5318      5319      5318      5320      5318      5321
      5321      5322      5321      5323      5321      5324      5324      5325
      5324      5326      5324      5327      5327      5328      5327      5329
      5327      5330      5331      5332      5331      5336      5331      5340
      5332      5333      5332      5334      5332      5335      5336      5337
      5336      5338      5336      5339      5340      5341      5340      5342
      5340      5343      5331      5344      5344      5345      5344      5346
      5344      5347      5347      5348      5347      5349      5347      5354
      5354      5350      5350      5353      5350      5351      5350      5352
      5355      5356      5355      5357      5355      5358      5355      5353
      5358      5359      5358      5366      5358      5360      5366      5367
      5366      5368      5366      5369      5360      5361      5361      5363
      5361      5362      5363      5364      5363      5365      5363      5375
      5375      5376      5375      5377      5375      5378      5378      5379
      5378      5380      5378      5381      5381      5382      5381      5383
      5381      5384      5384      5385      5384      5386      5384      5387
      5387      5388      5387      5389      5387      5390      5390      5391
      5390      5392      5390      5393      5393      5394      5393      5395
      5393      5396      5396      5397      5396      5398      5396      5399
      5399      5400      5399      5401      5399      5402      5402      5403
      5402      5404      5402      5405      5405      5406      5405      5407
      5405      5408      5408      5409      5408      5410      5408      5411
      5411      5412      5411      5413      5411      5414      5414      5415
      5414      5416      5414      5417      5369      5370      5370      5372
      5370      5371      5372      5373      5372      5374      5372      5418
      5418      5419      5418      5420      5418      5421      5421      5422
      5421      5423      5421      5424      5424      5425      5424      5426
      5424      5427      5427      5428      5427      5429      5427      5430
      5430      5431      5430      5432      5430      5433      5433      5434
      5433      5435      5433      5436      5436      5437      5436      5438
      5436      5439      5439      5440      5439      5441      5439      5442
      5442      5443      5442      5444      5442      5445      5445      5446
      5445      5447      5445      5448      5448      5449      5448      5450
      5448      5451      5451      5452      5451      5453      5451      5454
      5454      5455      5454      5456      5454      5457      5457      5458
      5457      5459      5457      5460      5461      5462      5461      5466
      5461      5470      5462      5463      5462      5464      5462      5465
      5466      5467      5466      5468      5466      5469      5470      5471
      5470      5472      5470      5473      5461      5474      5474      5475
      5474      5476      5474      5477      5477      5478      5477      5479
      5477      5484      5484      5480      5480      5483      5480      5481
      5480      5482      5485      5486      5485      5487      5485      5488
      5485      5483      5488      5489      5488      5496      5488      5490
      5496      5497      5496      5498      5496      5499      5490      5491
      5491      5493      5491      5492      5493      5494      5493      5495
      5493      5505      5505      5506      5505      5507      5505      5508
      5508      5509      5508      5510      5508      5511      5511      5512
      5511      5513      5511      5514      5514      5515      5514      5516
      5514      5517      5517      5518      5517      5519      5517      5520
      5520      5521      5520      5522      5520      5523      5523      5524
      5523      5525      5523      5526      5526      5527      5526      5528
      5526      5529      5529      5530      5529      5531      5529      5532
      5532      5533      5532      5534      5532      5535      5535      5536
      5535      5537      5535      5538      5538      5539      5538      5540
      5538      5541      5541      5542      5541      5543      5541      5544
      5544      5545      5544      5546      5544      5547      5499      5500
      5500      5502      5500      5501      5502      5503      5502      5504
      5502      5548      5548      5549      5548      5550      5548      5551
      5551      5552      5551      5553      5551      5554      5554      5555
      5554      5556      5554      5557      5557      5558      5557      5559
      5557      5560      5560      5561      5560      5562      5560      5563
      5563      5564      5563      5565      5563      5566      5566      5567
      5566      5568      5566      5569      5569      5570      5569      5571
      5569      5572      5572      5573      5572      5574      5572      5575
      5575      5576      5575      5577      5575      5578      5578      5579
      5578      5580      5578      5581      5581      5582      5581      5583
      5581      5584      5584      5585      5584      5586      5584      5587
      5587      5588      5587      5589      5587      5590      5591      5592
      5591      5596      5591      5600      5592      5593      5592      5594
      5592      5595      5596      5597      5596      5598      5596      5599
      5600      5601      5600      5602      5600      5603      5591      5604
      5604      5605      5604      5606      5604      5607      5607      5608
      5607      5609      5607      5614      5614      5610      5610      5613
      5610      5611      5610      5612      5615      5616      5615      5617
      5615      5618      5615      5613      5618      5619      5618      5626
      5618      5620      5626      5627      5626      5628      5626      5629
      5620      5621      5621      5623      5621      5622      5623      5624
      5623      5625      5623      5635      5635      5636      5635      5637
      5635      5638      5638      5639      5638      5640      5638      5641
      5641      5642      5641      5643      5641      5644      5644      5645
      5644      5646      5644      5647      5647      5648      5647      5649
      5647      5650      5650      5651      5650      5652      5650      5653
      5653      5654      5653      5655      5653      5656      5656      5657
      5656      5658      5656      5659      5659      5660      5659      5661
      5659      5662      5662      5663      5662      5664      5662      5665
      5665      5666      5665      5667      5665      5668      5668      5669
      5668      5670      5668      5671      5671      5672      5671      5673
      5671      5674      5674      5675      5674      5676      5674      5677
      5629      5630      5630      5632      5630      5631      5632      5633
      5632      5634      5632      5678      5678      5679      5678      5680
      5678      5681      5681      5682      5681      5683      5681      5684
      5684      5685      5684      5686      5684      5687      5687      5688
      5687      5689      5687      5690      5690      5691      5690      5692
      5690      5693      5693      5694      5693      5695      5693      5696
      5696      5697      5696      5698      5696      5699      5699      5700
      5699      5701      5699      5702      5702      5703      5702      5704
      5702      5705      5705      5706      5705      5707      5705      5708
      5708      5709      5708      5710      5708      5711      5711      5712
      5711      5713      5711      5714      5714      5715      5714      5716
      5714      5717      5717      5718      5717      5719      5717      5720
      5721      5722      5721      5726      5721      5730      5722      5723
      5722      5724      5722      5725      5726      5727      5726      5728
      5726      5729      5730      5731      5730      5732      5730      5733
      5721      5734      5734      5735      5734      5736      5734      5737
      5737      5738      5737      5739      5737      5744      5744      5740
      5740      5743      5740      5741      5740      5742      5745      5746
      5745      5747      5745      5748      5745      5743      5748      5749
      5748      5756      5748      5750      5756      5757      5756      5758
      5756      5759      5750      5751      5751      5753      5751      5752
      5753      5754      5753      5755      5753      5765      5765      5766
      5765      5767      5765      5768      5768      5769      5768      5770
      5768      5771      5771      5772      5771      5773      5771      5774
      5774      5775      5774      5776      5774      5777      5777      5778
      5777      5779      5777      5780      5780      5781      5780      5782
      5780      5783      5783      5784      5783      5785      5783      5786
      5786      5787      5786      5788      5786      5789      5789      5790
      5789      5791      5789      5792      5792      5793      5792      5794
      5792      5795      5795      5796      5795      5797      5795      5798
      5798      5799      5798      5800      5798      5801      5801      5802
      5801      5803      5801      5804      5804      5805      5804      5806
      5804      5807      5759      5760      5760      5762      5760      5761
      5762      5763      5762      5764      5762      5808      5808      5809
      5808      5810      5808      5811      5811      5812      5811      5813
      5811      5814      5814      5815      5814      5816      5814      5817
      5817      5818      5817      5819      5817      5820      5820      5821
      5820      5822      5820      5823      5823      5824      5823      5825
      5823      5826      5826      5827      5826      5828      5826      5829
      5829      5830      5829      5831      5829      5832      5832      5833
      5832      5834      5832      5835      5835      5836      5835      5837
      5835      5838      5838      5839      5838      5840      5838      5841
      5841      5842      5841      5843      5841      5844      5844      5845
      5844      5846      5844      5847      5847      5848      5847      5849
      5847      5850      5851      5852      5851      5856      5851      5860
      5852      5853      5852      5854      5852      5855      5856      5857
      5856      5858      5856      5859      5860      5861      5860      5862
      5860      5863      5851      5864      5864      5865      5864      5866
      5864      5867      5867      5868      5867      5869      5867      5874
      5874      5870      5870      5873      5870      5871      5870      5872
      5875      5876      5875      5877      5875      5878      5875      5873
      5878      5879      5878      5886      5878      5880      5886      5887
      5886      5888      5886      5889      5880      5881      5881      5883
      5881      5882      5883      5884      5883      5885      5883      5895
      5895      5896      5895      5897      5895      5898      5898      5899
      5898      5900      5898      5901      5901      5902      5901      5903
      5901      5904      5904      5905      5904      5906      5904      5907
      5907      5908      5907      5909      5907      5910      5910      5911
      5910      5912      5910      5913      5913      5914      5913      5915
      5913      5916      5916      5917      5916      5918      5916      5919
      5919      5920      5919      5921      5919      5922      5922      5923
      5922      5924      5922      5925      5925      5926      5925      5927
      5925      5928      5928      5929      5928      5930      5928      5931
      5931      5932      5931      5933      5931      5934      5934      5935
      5934      5936      5934      5937      5889      5890      5890      5892
      5890      5891      5892      5893      5892      5894      5892      5938
      5938      5939      5938      5940      5938      5941      5941      5942
      5941      5943      5941      5944      5944      5945      5944      5946
      5944      5947      5947      5948      5947      5949      5947      5950
      5950      5951      5950      5952      5950      5953      5953      5954
      5953      5955      5953      5956      5956      5957      5956      5958
      5956      5959      5959      5960      5959      5961      5959      5962
      5962      5963      5962      5964      5962      5965      5965      5966
      5965      5967      5965      5968      5968      5969      5968      5970
      5968      5971      5971      5972      5971      5973      5971      5974
      5974      5975      5974      5976      5974      5977      5977      5978
      5977      5979      5977      5980      5981      5982      5981      5986
      5981      5990      5982      5983      5982      5984      5982      5985
      5986      5987      5986      5988      5986      5989      5990      5991
      5990      5992      5990      5993      5981      5994      5994      5995
      5994      5996      5994      5997      5997      5998      5997      5999
      5997      6004      6004      6000      6000      6003      6000      6001
      6000      6002      6005      6006      6005      6007      6005      6008
      6005      6003      6008      6009      6008      6016      6008      6010
      6016      6017      6016      6018      6016      6019      6010      6011
      6011      6013      6011      6012      6013      6014      6013      6015
      6013      6025      6025      6026      6025      6027      6025      6028
      6028      6029      6028      6030      6028      6031      6031      6032
      6031      6033      6031      6034      6034      6035      6034      6036
      6034      6037      6037      6038      6037      6039      6037      6040
      6040      6041      6040      6042      6040      6043      6043      6044
      6043      6045      6043      6046      6046      6047      6046      6048
      6046      6049      6049      6050      6049      6051      6049      6052
      6052      6053      6052      6054      6052      6055      6055      6056
      6055      6057      6055      6058      6058      6059      6058      6060
      6058      6061      6061      6062      6061      6063      6061      6064
      6064      6065      6064      6066      6064      6067      6019      6020
      6020      6022      6020      6021      6022      6023      6022      6024
      6022      6068      6068      6069      6068      6070      6068      6071
      6071      6072      6071      6073      6071      6074      6074      6075
      6074      6076      6074      6077      6077      6078      6077      6079
      6077      6080      6080      6081      6080      6082      6080      6083
      6083      6084      6083      6085      6083      6086      6086      6087
      6086      6088      6086      6089      6089      6090      6089      6091
      6089      6092      6092      6093      6092      6094      6092      6095
      6095      6096      6095      6097      6095      6098      6098      6099
      6098      6100      6098      6101      6101      6102      6101      6103
      6101      6104      6104      6105      6104      6106      6104      6107
      6107      6108      6107      6109      6107      6110      6111      6112
      6111      6116      6111      6120      6112      6113      6112      6114
      6112      6115      6116      6117      6116      6118      6116      6119
      6120      6121      6120      6122      6120      6123      6111      6124
      6124      6125      6124      6126      6124      6127      6127      6128
      6127      6129      6127      6134      6134      6130      6130      6133
      6130      6131      6130      6132      6135      6136      6135      6137
      6135      6138      6135      6133      6138      6139      6138      6146
      6138      6140      6146      6147      6146      6148      6146      6149
      6140      6141      6141      6143      6141      6142      6143      6144
      6143      6145      6143      6155      6155      6156      6155      6157
      6155      6158      6158      6159      6158      6160      6158      6161
      6161      6162      6161      6163      6161      6164      6164      6165
      6164      6166      6164      6167      6167      6168      6167      6169
      6167      6170      6170      6171      6170      6172      6170      6173
      6173      6174      6173      6175      6173      6176      6176      6177
      6176      6178      6176      6179      6179      6180      6179      6181
      6179      6182      6182      6183      6182      6184      6182      6185
      6185      6186      6185      6187      6185      6188      6188      6189
      6188      6190      6188      6191      6191      6192      6191      6193
      6191      6194      6194      6195      6194      6196      6194      6197
      6149      6150      6150      6152      6150      6151      6152      6153
      6152      6154      6152      6198      6198      6199      6198      6200
      6198      6201      6201      6202      6201      6203      6201      6204
      6204      6205      6204      6206      6204      6207      6207      6208
      6207      6209      6207      6210      6210      6211      6210      6212
      6210      6213      6213      6214      6213      6215      6213      6216
      6216      6217      6216      6218      6216      6219      6219      6220
      6219      6221      6219      6222      6222      6223      6222      6224
      6222      6225      6225      6226      6225      6227      6225      6228
      6228      6229      6228      6230      6228      6231      6231      6232
      6231      6233      6231      6234      6234      6235      6234      6236
      6234      6237      6237      6238      6237      6239      6237      6240
      6241      6242      6241      6246      6241      6250      6242      6243
      6242      6244      6242      6245      6246      6247      6246      6248
      6246      6249      6250      6251      6250      6252      6250      6253
      6241      6254      6254      6255      6254      6256      6254      6257
      6257      6258      6257      6259      6257      6264      6264      6260
      6260      6263      6260      6261      6260      6262      6265      6266
      6265      6267      6265      6268      6265      6263      6268      6269
      6268      6276      6268      6270      6276      6277      6276      6278
      6276      6279      6270      6271      6271      6273      6271      6272
      6273      6274      6273      6275      6273      6285      6285      6286
      6285      6287      6285      6288      6288      6289      6288      6290
      6288      6291      6291      6292      6291      6293      6291      6294
      6294      6295      6294      6296      6294      6297      6297      6298
      6297      6299      6297      6300      6300      6301      6300      6302
      6300      6303      6303      6304      6303      6305      6303      6306
      6306      6307      6306      6308      6306      6309      6309      6310
      6309      6311      6309      6312      6312      6313      6312      6314
      6312      6315      6315      6316      6315      6317      6315      6318
      6318      6319      6318      6320      6318      6321      6321      6322
      6321      6323      6321      6324      6324      6325      6324      6326
      6324      6327      6279      6280      6280      6282      6280      6281
      6282      6283      6282      6284      6282      6328      6328      6329
      6328      6330      6328      6331      6331      6332      6331      6333
      6331      6334      6334      6335      6334      6336      6334      6337
      6337      6338      6337      6339      6337      6340      6340      6341
      6340      6342      6340      6343      6343      6344      6343      6345
      6343      6346      6346      6347      6346      6348      6346      6349
      6349      6350      6349      6351      6349      6352      6352      6353
      6352      6354      6352      6355      6355      6356      6355      6357
      6355      6358      6358      6359      6358      6360      6358      6361
      6361      6362      6361      6363      6361      6364      6364      6365
      6364      6366      6364      6367      6367      6368      6367      6369
      6367      6370      6371      6372      6371      6376      6371      6380
      6372      6373      6372      6374      6372      6375      6376      6377
      6376      6378      6376      6379      6380      6381      6380      6382
      6380      6383      6371      6384      6384      6385      6384      6386
      6384      6387      6387      6388      6387      6389      6387      6394
      6394      6390      6390      6393      6390      6391      6390      6392
      6395      6396      6395      6397      6395      6398      6395      6393
      6398      6399      6398      6406      6398      6400      6406      6407
      6406      6408      6406      6409      6400      6401      6401      6403
      6401      6402      6403      6404      6403      6405      6403      6415
      6415      6416      6415      6417      6415      6418      6418      6419
      6418      6420      6418      6421      6421      6422      6421      6423
      6421      6424      6424      6425      6424      6426      6424      6427
      6427      6428      6427      6429      6427      6430      6430      6431
      6430      6432      6430      6433      6433      6434      6433      6435
      6433      6436      6436      6437      6436      6438      6436      6439
      6439      6440      6439      6441      6439      6442      6442      6443
      6442      6444      6442      6445      6445      6446      6445      6447
      6445      6448      6448      6449      6448      6450      6448      6451
      6451      6452      6451      6453      6451      6454      6454      6455
      6454      6456      6454      6457      6409      6410      6410      6412
      6410      6411      6412      6413      6412      6414      6412      6458
      6458      6459      6458      6460      6458      6461      6461      6462
      6461      6463      6461      6464      6464      6465      6464      6466
      6464      6467      6467      6468      6467      6469      6467      6470
      6470      6471      6470      6472      6470      6473      6473      6474
      6473      6475      6473      6476      6476      6477      6476      6478
      6476      6479      6479      6480      6479      6481      6479      6482
      6482      6483      6482      6484      6482      6485      6485      6486
      6485      6487      6485      6488      6488      6489      6488      6490
      6488      6491      6491      6492      6491      6493      6491      6494
      6494      6495      6494      6496      6494      6497      6497      6498
      6497      6499      6497      6500      6501      6502      6501      6506
      6501      6510      6502      6503      6502      6504      6502      6505
      6506      6507      6506      6508      6506      6509      6510      6511
      6510      6512      6510      6513      6501      6514      6514      6515
      6514      6516      6514      6517      6517      6518      6517      6519
      6517      6524      6524      6520      6520      6523      6520      6521
      6520      6522      6525      6526      6525      6527      6525      6528
      6525      6523      6528      6529      6528      6536      6528      6530
      6536      6537      6536      6538      6536      6539      6530      6531
      6531      6533      6531      6532      6533      6534      6533      6535
      6533      6545      6545      6546      6545      6547      6545      6548
      6548      6549      6548      6550      6548      6551      6551      6552
      6551      6553      6551      6554      6554      6555      6554      6556
      6554      6557      6557      6558      6557      6559      6557      6560
      6560      6561      6560      6562      6560      6563      6563      6564
      6563      6565      6563      6566      6566      6567      6566      6568
      6566      6569      6569      6570      6569      6571      6569      6572
      6572      6573      6572      6574      6572      6575      6575      6576
      6575      6577      6575      6578      6578      6579      6578      6580
      6578      6581      6581      6582      6581      6583      6581      6584
      6584      6585      6584      6586      6584      6587      6539      6540
      6540      6542      6540      6541      6542      6543      6542      6544
      6542      6588      6588      6589      6588      6590      6588      6591
      6591      6592      6591      6593      6591      6594      6594      6595
      6594      6596      6594      6597      6597      6598      6597      6599
      6597      6600      6600      6601      6600      6602      6600      6603
      6603      6604      6603      6605      6603      6606      6606      6607
      6606      6608      6606      6609      6609      6610      6609      6611
      6609      6612      6612      6613      6612      6614      6612      6615
      6615      6616      6615      6617      6615      6618      6618      6619
      6618      6620      6618      6621      6621      6622      6621      6623
      6621      6624      6624      6625      6624      6626      6624      6627
      6627      6628      6627      6629      6627      6630      6631      6632
      6631      6636      6631      6640      6632      6633      6632      6634
      6632      6635      6636      6637      6636      6638      6636      6639
      6640      6641      6640      6642      6640      6643      6631      6644
      6644      6645      6644      6646      6644      6647      6647      6648
      6647      6649      6647      6654      6654      6650      6650      6653
      6650      6651      6650      6652      6655      6656      6655      6657
      6655      6658      6655      6653      6658      6659      6658      6666
      6658      6660      6666      6667      6666      6668      6666      6669
      6660      6661      6661      6663      6661      6662      6663      6664
      6663      6665      6663      6675      6675      6676      6675      6677
      6675      6678      6678      6679      6678      6680      6678      6681
      6681      6682      6681      6683      6681      6684      6684      6685
      6684      6686      6684      6687      6687      6688      6687      6689
      6687      6690      6690      6691      6690      6692      6690      6693
      6693      6694      6693      6695      6693      6696      6696      6697
      6696      6698      6696      6699      6699      6700      6699      6701
      6699      6702      6702      6703      6702      6704      6702      6705
      6705      6706      6705      6707      6705      6708      6708      6709
      6708      6710      6708      6711      6711      6712      6711      6713
      6711      6714      6714      6715      6714      6716      6714      6717
      6669      6670      6670      6672      6670      6671      6672      6673
      6672      6674      6672      6718      6718      6719      6718      6720
      6718      6721      6721      6722      6721      6723      6721      6724
      6724      6725      6724      6726      6724      6727      6727      6728
      6727      6729      6727      6730      6730      6731      6730      6732
      6730      6733      6733      6734      6733      6735      6733      6736
      6736      6737      6736      6738      6736      6739      6739      6740
      6739      6741      6739      6742      6742      6743      6742      6744
      6742      6745      6745      6746      6745      6747      6745      6748
      6748      6749      6748      6750      6748      6751      6751      6752
      6751      6753      6751      6754      6754      6755      6754      6756
      6754      6757      6757      6758      6757      6759      6757      6760
      6761      6762      6761      6766      6761      6770      6762      6763
      6762      6764      6762      6765      6766      6767      6766      6768
      6766      6769      6770      6771      6770      6772      6770      6773
      6761      6774      6774      6775      6774      6776      6774      6777
      6777      6778      6777      6779      6777      6784      6784      6780
      6780      6783      6780      6781      6780      6782      6785      6786
      6785      6787      6785      6788      6785      6783      6788      6789
      6788      6796      6788      6790      6796      6797      6796      6798
      6796      6799      6790      6791      6791      6793      6791      6792
      6793      6794      6793      6795      6793      6805      6805      6806
      6805      6807      6805      6808      6808      6809      6808      6810
      6808      6811      6811      6812      6811      6813      6811      6814
      6814      6815      6814      6816      6814      6817      6817      6818
      6817      6819      6817      6820      6820      6821      6820      6822
      6820      6823      6823      6824      6823      6825      6823      6826
      6826      6827      6826      6828      6826      6829      6829      6830
      6829      6831      6829      6832      6832      6833      6832      6834
      6832      6835      6835      6836      6835      6837      6835      6838
      6838      6839      6838      6840      6838      6841      6841      6842
      6841      6843      6841      6844      6844      6845      6844      6846
      6844      6847      6799      6800      6800      6802      6800      6801
      6802      6803      6802      6804      6802      6848      6848      6849
      6848      6850      6848      6851      6851      6852      6851      6853
      6851      6854      6854      6855      6854      6856      6854      6857
      6857      6858      6857      6859      6857      6860      6860      6861
      6860      6862      6860      6863      6863      6864      6863      6865
      6863      6866      6866      6867      6866      6868      6866      6869
      6869      6870      6869      6871      6869      6872      6872      6873
      6872      6874      6872      6875      6875      6876      6875      6877
      6875      6878      6878      6879      6878      6880      6878      6881
      6881      6882      6881      6883      6881      6884      6884      6885
      6884      6886      6884      6887      6887      6888      6887      6889
      6887      6890      6891      6892      6891      6896      6891      6900
      6892      6893      6892      6894      6892      6895      6896      6897
      6896      6898      6896      6899      6900      6901      6900      6902
      6900      6903      6891      6904      6904      6905      6904      6906
      6904      6907      6907      6908      6907      6909      6907      6914
      6914      6910      6910      6913      6910      6911      6910      6912
      6915      6916      6915      6917      6915      6918      6915      6913
      6918      6919      6918      6926      6918      6920      6926      6927
      6926      6928      6926      6929      6920      6921      6921      6923
      6921      6922      6923      6924      6923      6925      6923      6935
      6935      6936      6935      6937      6935      6938      6938      6939
      6938      6940      6938      6941      6941      6942      6941      6943
      6941      6944      6944      6945      6944      6946      6944      6947
      6947      6948      6947      6949      6947      6950      6950      6951
      6950      6952      6950      6953      6953      6954      6953      6955
      6953      6956      6956      6957      6956      6958      6956      6959
      6959      6960      6959      6961      6959      6962      6962      6963
      6962      6964      6962      6965      6965      6966      6965      6967
      6965      6968      6968      6969      6968      6970      6968      6971
      6971      6972      6971      6973      6971      6974      6974      6975
      6974      6976      6974      6977      6929      6930      6930      6932
      6930      6931      6932      6933      6932      6934      6932      6978
      6978      6979      6978      6980      6978      6981      6981      6982
      6981      6983      6981      6984      6984      6985      6984      6986
      6984      6987      6987      6988      6987      6989      6987      6990
      6990      6991      6990      6992      6990      6993      6993      6994
      6993      6995      6993      6996      6996      6997      6996      6998
      6996      6999      6999      7000      6999      7001      6999      7002
      7002      7003      7002      7004      7002      7005      7005      7006
      7005      7007      7005      7008      7008      7009      7008      7010
      7008      7011      7011      7012      7011      7013      7011      7014
      7014      7015      7014      7016      7014      7017      7017      7018
      7017      7019      7017      7020      7021      7022      7021      7026
      7021      7030      7022      7023      7022      7024      7022      7025
      7026      7027      7026      7028      7026      7029      7030      7031
      7030      7032      7030      7033      7021      7034      7034      7035
      7034      7036      7034      7037      7037      7038      7037      7039
      7037      7044      7044      7040      7040      7043      7040      7041
      7040      7042      7045      7046      7045      7047      7045      7048
      7045      7043      7048      7049      7048      7056      7048      7050
      7056      7057      7056      7058      7056      7059      7050      7051
      7051      7053      7051      7052      7053      7054      7053      7055
      7053      7065      7065      7066      7065      7067      7065      7068
      7068      7069      7068      7070      7068      7071      7071      7072
      7071      7073      7071      7074      7074      7075      7074      7076
      7074      7077      7077      7078      7077      7079      7077      7080
      7080      7081      7080      7082      7080      7083      7083      7084
      7083      7085      7083      7086      7086      7087      7086      7088
      7086      7089      7089      7090      7089      7091      7089      7092
      7092      7093      7092      7094      7092      7095      7095      7096
      7095      7097      7095      7098      7098      7099      7098      7100
      7098      7101      7101      7102      7101      7103      7101      7104
      7104      7105      7104      7106      7104      7107      7059      7060
      7060      7062      7060      7061      7062      7063      7062      7064
      7062      7108      7108      7109      7108      7110      7108      7111
      7111      7112      7111      7113      7111      7114      7114      7115
      7114      7116      7114      7117      7117      7118      7117      7119
      7117      7120      7120      7121      7120      7122      7120      7123
      7123      7124      7123      7125      7123      7126      7126      7127
      7126      7128      7126      7129      7129      7130      7129      7131
      7129      7132      7132      7133      7132      7134      7132      7135
      7135      7136      7135      7137      7135      7138      7138      7139
      7138      7140      7138      7141      7141      7142      7141      7143
      7141      7144      7144      7145      7144      7146      7144      7147
      7147      7148      7147      7149      7147      7150      7151      7152
      7151      7156      7151      7160      7152      7153      7152      7154
      7152      7155      7156      7157      7156      7158      7156      7159
      7160      7161      7160      7162      7160      7163      7151      7164
      7164      7165      7164      7166      7164      7167      7167      7168
      7167      7169      7167      7174      7174      7170      7170      7173
      7170      7171      7170      7172      7175      7176      7175      7177
      7175      7178      7175      7173      7178      7179      7178      7186
      7178      7180      7186      7187      7186      7188      7186      7189
      7180      7181      7181      7183      7181      7182      7183      7184
      7183      7185      7183      7195      7195      7196      7195      7197
      7195      7198      7198      7199      7198      7200      7198      7201
      7201      7202      7201      7203      7201      7204      7204      7205
      7204      7206      7204      7207      7207      7208      7207      7209
      7207      7210      7210      7211      7210      7212      7210      7213
      7213      7214      7213      7215      7213      7216      7216      7217
      7216      7218      7216      7219      7219      7220      7219      7221
      7219      7222      7222      7223      7222      7224      7222      7225
      7225      7226      7225      7227      7225      7228      7228      7229
      7228      7230      7228      7231      7231      7232      7231      7233
      7231      7234      7234      7235      7234      7236      7234      7237
      7189      7190      7190      7192      7190      7191      7192      7193
      7192      7194      7192      7238      7238      7239      7238      7240
      7238      7241      7241      7242      7241      7243      7241      7244
      7244      7245      7244      7246      7244      7247      7247      7248
      7247      7249      7247      7250      7250      7251      7250      7252
      7250      7253      7253      7254      7253      7255      7253      7256
      7256      7257      7256      7258      7256      7259      7259      7260
      7259      7261      7259      7262      7262      7263      7262      7264
      7262      7265      7265      7266      7265      7267      7265      7268
      7268      7269      7268      7270      7268      7271      7271      7272
      7271      7273      7271      7274      7274      7275      7274      7276
      7274      7277      7277      7278      7277      7279      7277      7280
      7281      7282      7281      7286      7281      7290      7282      7283
      7282      7284      7282      7285      7286      7287      7286      7288
      7286      7289      7290      7291      7290      7292      7290      7293
      7281      7294      7294      7295      7294      7296      7294      7297
      7297      7298      7297      7299      7297      7304      7304      7300
      7300      7303      7300      7301      7300      7302      7305      7306
      7305      7307      7305      7308      7305      7303      7308      7309
      7308      7316      7308      7310      7316      7317      7316      7318
      7316      7319      7310      7311      7311      7313      7311      7312
      7313      7314      7313      7315      7313      7325      7325      7326
      7325      7327      7325      7328      7328      7329      7328      7330
      7328      7331      7331      7332      7331      7333      7331      7334
      7334      7335      7334      7336      7334      7337      7337      7338
      7337      7339      7337      7340      7340      7341      7340      7342
      7340      7343      7343      7344      7343      7345      7343      7346
      7346      7347      7346      7348      7346      7349      7349      7350
      7349      7351      7349      7352      7352      7353      7352      7354
      7352      7355      7355      7356      7355      7357      7355      7358
      7358      7359      7358      7360      7358      7361      7361      7362
      7361      7363      7361      7364      7364      7365      7364      7366
      7364      7367      7319      7320      7320      7322      7320      7321
      7322      7323      7322      7324      7322      7368      7368      7369
      7368      7370      7368      7371      7371      7372      7371      7373
      7371      7374      7374      7375      7374      7376      7374      7377
      7377      7378      7377      7379      7377      7380      7380      7381
      7380      7382      7380      7383      7383      7384      7383      7385
      7383      7386      7386      7387      7386      7388      7386      7389
      7389      7390      7389      7391      7389      7392      7392      7393
      7392      7394      7392      7395      7395      7396      7395      7397
      7395      7398      7398      7399      7398      7400      7398      7401
      7401      7402      7401      7403      7401      7404      7404      7405
      7404      7406      7404      7407      7407      7408      7407      7409
      7407      7410      7411      7412      7411      7416      7411      7420
      7412      7413      7412      7414      7412      7415      7416      7417
      7416      7418      7416      7419      7420      7421      7420      7422
      7420      7423      7411      7424      7424      7425      7424      7426
      7424      7427      7427      7428      7427      7429      7427      7434
      7434      7430      7430      7433      7430      7431      7430      7432
      7435      7436      7435      7437      7435      7438      7435      7433
      7438      7439      7438      7446      7438      7440      7446      7447
      7446      7448      7446      7449      7440      7441      7441      7443
      7441      7442      7443      7444      7443      7445      7443      7455
      7455      7456      7455      7457      7455      7458      7458      7459
      7458      7460      7458      7461      7461      7462      7461      7463
      7461      7464      7464      7465      7464      7466      7464      7467
      7467      7468      7467      7469      7467      7470      7470      7471
      7470      7472      7470      7473      7473      7474      7473      7475
      7473      7476      7476      7477      7476      7478      7476      7479
      7479      7480      7479      7481      7479      7482      7482      7483
      7482      7484      7482      7485      7485      7486      7485      7487
      7485      7488      7488      7489      7488      7490      7488      7491
      7491      7492      7491      7493      7491      7494      7494      7495
      7494      7496      7494      7497      7449      7450      7450      7452
      7450      7451      7452      7453      7452      7454      7452      7498
      7498      7499      7498      7500      7498      7501      7501      7502
      7501      7503      7501      7504      7504      7505      7504      7506
      7504      7507      7507      7508      7507      7509      7507      7510
      7510      7511      7510      7512      7510      7513      7513      7514
      7513      7515      7513      7516      7516      7517      7516      7518
      7516      7519      7519      7520      7519      7521      7519      7522
      7522      7523      7522      7524      7522      7525      7525      7526
      7525      7527      7525      7528      7528      7529      7528      7530
      7528      7531      7531      7532      7531      7533      7531      7534
      7534      7535      7534      7536      7534      7537      7537      7538
      7537      7539      7537      7540      7541      7542      7541      7546
      7541      7550      7542      7543      7542      7544      7542      7545
      7546      7547      7546      7548      7546      7549      7550      7551
      7550      7552      7550      7553      7541      7554      7554      7555
      7554      7556      7554      7557      7557      7558      7557      7559
      7557      7564      7564      7560      7560      7563      7560      7561
      7560      7562      7565      7566      7565      7567      7565      7568
      7565      7563      7568      7569      7568      7576      7568      7570
      7576      7577      7576      7578      7576      7579      7570      7571
      7571      7573      7571      7572      7573      7574      7573      7575
      7573      7585      7585      7586      7585      7587      7585      7588
      7588      7589      7588      7590      7588      7591      7591      7592
      7591      7593      7591      7594      7594      7595      7594      7596
      7594      7597      7597      7598      7597      7599      7597      7600
      7600      7601      7600      7602      7600      7603      7603      7604
      7603      7605      7603      7606      7606      7607      7606      7608
      7606      7609      7609      7610      7609      7611      7609      7612
      7612      7613      7612      7614      7612      7615      7615      7616
      7615      7617      7615      7618      7618      7619      7618      7620
      7618      7621      7621      7622      7621      7623      7621      7624
      7624      7625      7624      7626      7624      7627      7579      7580
      7580      7582      7580      7581      7582      7583      7582      7584
      7582      7628      7628      7629      7628      7630      7628      7631
      7631      7632      7631      7633      7631      7634      7634      7635
      7634      7636      7634      7637      7637      7638      7637      7639
      7637      7640      7640      7641      7640      7642      7640      7643
      7643      7644      7643      7645      7643      7646      7646      7647
      7646      7648      7646      7649      7649      7650      7649      7651
      7649      7652      7652      7653      7652      7654      7652      7655
      7655      7656      7655      7657      7655      7658      7658      7659
      7658      7660      7658      7661      7661      7662      7661      7663
      7661      7664      7664      7665      7664      7666      7664      7667
      7667      7668      7667      7669      7667      7670      7671      7672
      7671      7676      7671      7680      7672      7673      7672      7674
      7672      7675      7676      7677      7676      7678      7676      7679
      7680      7681      7680      7682      7680      7683      7671      7684
      7684      7685      7684      7686      7684      7687      7687      7688
      7687      7689      7687      7694      7694      7690      7690      7693
      7690      7691      7690      7692      7695      7696      7695      7697
      7695      7698      7695      7693      7698      7699      7698      7706
      7698      7700      7706      7707      7706      7708      7706      7709
      7700      7701      7701      7703      7701      7702      7703      7704
      7703      7705      7703      7715      7715      7716      7715      7717
      7715      7718      7718      7719      7718      7720      7718      7721
      7721      7722      7721      7723      7721      7724      7724      7725
      7724      7726      7724      7727      7727      7728      7727      7729
      7727      7730      7730      7731      7730      7732      7730      7733
      7733      7734      7733      7735      7733      7736      7736      7737
      7736      7738      7736      7739      7739      7740      7739      7741
      7739      7742      7742      7743      7742      7744      7742      7745
      7745      7746      7745      7747      7745      7748      7748      7749
      7748      7750      7748      7751      7751      7752      7751      7753
      7751      7754      7754      7755      7754      7756      7754      7757
      7709      7710      7710      7712      7710      7711      7712      7713
      7712      7714      7712      7758      7758      7759      7758      7760
      7758      7761      7761      7762      7761      7763      7761      7764
      7764      7765      7764      7766      7764      7767      7767      7768
      7767      7769      7767      7770      7770      7771      7770      7772
      7770      7773      7773      7774      7773      7775      7773      7776
      7776      7777      7776      7778      7776      7779      7779      7780
      7779      7781      7779      7782      7782      7783      7782      7784
      7782      7785      7785      7786      7785      7787      7785      7788
      7788      7789      7788      7790      7788      7791      7791      7792
      7791      7793      7791      7794      7794      7795      7794      7796
      7794      7797      7797      7798      7797      7799      7797      7800
      7801      7802      7801      7806      7801      7810      7802      7803
      7802      7804      7802      7805      7806      7807      7806      7808
      7806      7809      7810      7811      7810      7812      7810      7813
      7801      7814      7814      7815      7814      7816      7814      7817
      7817      7818      7817      7819      7817      7824      7824      7820
      7820      7823      7820      7821      7820      7822      7825      7826
      7825      7827      7825      7828      7825      7823      7828      7829
      7828      7836      7828      7830      7836      7837      7836      7838
      7836      7839      7830      7831      7831      7833      7831      7832
      7833      7834      7833      7835      7833      7845      7845      7846
      7845      7847      7845      7848      7848      7849      7848      7850
      7848      7851      7851      7852      7851      7853      7851      7854
      7854      7855      7854      7856      7854      7857      7857      7858
      7857      7859      7857      7860      7860      7861      7860      7862
      7860      7863      7863      7864      7863      7865      7863      7866
      7866      7867      7866      7868      7866      7869      7869      7870
      7869      7871      7869      7872      7872      7873      7872      7874
      7872      7875      7875      7876      7875      7877      7875      7878
      7878      7879      7878      7880      7878      7881      7881      7882
      7881      7883      7881      7884      7884      7885      7884      7886
      7884      7887      7839      7840      7840      7842      7840      7841
      7842      7843      7842      7844      7842      7888      7888      7889
      7888      7890      7888      7891      7891      7892      7891      7893
      7891      7894      7894      7895      7894      7896      7894      7897
      7897      7898      7897      7899      7897      7900      7900      7901
      7900      7902      7900      7903      7903      7904      7903      7905
      7903      7906      7906      7907      7906      7908      7906      7909
      7909      7910      7909      7911      7909      7912      7912      7913
      7912      7914      7912      7915      7915      7916      7915      7917
      7915      7918      7918      7919      7918      7920      7918      7921
      7921      7922      7921      7923      7921      7924      7924      7925
      7924      7926      7924      7927      7927      7928      7927      7929
      7927      7930      7931      7932      7931      7936      7931      7940
      7932      7933      7932      7934      7932      7935      7936      7937
      7936      7938      7936      7939      7940      7941      7940      7942
      7940      7943      7931      7944      7944      7945      7944      7946
      7944      7947      7947      7948      7947      7949      7947      7954
      7954      7950      7950      7953      7950      7951      7950      7952
      7955      7956      7955      7957      7955      7958      7955      7953
      7958      7959      7958      7966      7958      7960      7966      7967
      7966      7968      7966      7969      7960      7961      7961      7963
      7961      7962      7963      7964      7963      7965      7963      7975
      7975      7976      7975      7977      7975      7978      7978      7979
      7978      7980      7978      7981      7981      7982      7981      7983
      7981      7984      7984      7985      7984      7986      7984      7987
      7987      7988      7987      7989      7987      7990      7990      7991
      7990      7992      7990      7993      7993      7994      7993      7995
      7993      7996      7996      7997      7996      7998      7996      7999
      7999      8000      7999      8001      7999      8002      8002      8003
      8002      8004      8002      8005      8005      8006      8005      8007
      8005      8008      8008      8009      8008      8010      8008      8011
      8011      8012      8011      8013      8011      8014      8014      8015
      8014      8016      8014      8017      7969      7970      7970      7972
      7970      7971      7972      7973      7972      7974      7972      8018
      8018      8019      8018      8020      8018      8021      8021      8022
      8021      8023      8021      8024      8024      8025      8024      8026
      8024      8027      8027      8028      8027      8029      8027      8030
      8030      8031      8030      8032      8030      8033      8033      8034
      8033      8035      8033      8036      8036      8037      8036      8038
      8036      8039      8039      8040      8039      8041      8039      8042
      8042      8043      8042      8044      8042      8045      8045      8046
      8045      8047      8045      8048      8048      8049      8048      8050
      8048      8051      8051      8052      8051      8053      8051      8054
      8054      8055      8054      8056      8054      8057      8057      8058
      8057      8059      8057      8060      8061      8062      8061      8066
      8061      8070      8062      8063      8062      8064      8062      8065
      8066      8067      8066      8068      8066      8069      8070      8071
      8070      8072      8070      8073      8061      8074      8074      8075
      8074      8076      8074      8077      8077      8078      8077      8079
      8077      8084      8084      8080      8080      8083      8080      8081
      8080      8082      8085      8086      8085      8087      8085      8088
      8085      8083      8088      8089      8088      8096      8088      8090
      8096      8097      8096      8098      8096      8099      8090      8091
      8091      8093      8091      8092      8093      8094      8093      8095
      8093      8105      8105      8106      8105      8107      8105      8108
      8108      8109      8108      8110      8108      8111      8111      8112
      8111      8113      8111      8114      8114      8115      8114      8116
      8114      8117      8117      8118      8117      8119      8117      8120
      8120      8121      8120      8122      8120      8123      8123      8124
      8123      8125      8123      8126      8126      8127      8126      8128
      8126      8129      8129      8130      8129      8131      8129      8132
      8132      8133      8132      8134      8132      8135      8135      8136
      8135      8137      8135      8138      8138      8139      8138      8140
      8138      8141      8141      8142      8141      8143      8141      8144
      8144      8145      8144      8146      8144      8147      8099      8100
      8100      8102      8100      8101      8102      8103      8102      8104
      8102      8148      8148      8149      8148      8150      8148      8151
      8151      8152      8151      8153      8151      8154      8154      8155
      8154      8156      8154      8157      8157      8158      8157      8159
      8157      8160      8160      8161      8160      8162      8160      8163
      8163      8164      8163      8165      8163      8166      8166      8167
      8166      8168      8166      8169      8169      8170      8169      8171
      8169      8172      8172      8173      8172      8174      8172      8175
      8175      8176      8175      8177      8175      8178      8178      8179
      8178      8180      8178      8181      8181      8182      8181      8183
      8181      8184      8184      8185      8184      8186      8184      8187
      8187      8188      8187      8189      8187      8190      8191      8192
      8191      8196      8191      8200      8192      8193      8192      8194
      8192      8195      8196      8197      8196      8198      8196      8199
      8200      8201      8200      8202      8200      8203      8191      8204
      8204      8205      8204      8206      8204      8207      8207      8208
      8207      8209      8207      8214      8214      8210      8210      8213
      8210      8211      8210      8212      8215      8216      8215      8217
      8215      8218      8215      8213      8218      8219      8218      8226
      8218      8220      8226      8227      8226      8228      8226      8229
      8220      8221      8221      8223      8221      8222      8223      8224
      8223      8225      8223      8235      8235      8236      8235      8237
      8235      8238      8238      8239      8238      8240      8238      8241
      8241      8242      8241      8243      8241      8244      8244      8245
      8244      8246      8244      8247      8247      8248      8247      8249
      8247      8250      8250      8251      8250      8252      8250      8253
      8253      8254      8253      8255      8253      8256      8256      8257
      8256      8258      8256      8259      8259      8260      8259      8261
      8259      8262      8262      8263      8262      8264      8262      8265
      8265      8266      8265      8267      8265      8268      8268      8269
      8268      8270      8268      8271      8271      8272      8271      8273
      8271      8274      8274      8275      8274      8276      8274      8277
      8229      8230      8230      8232      8230      8231      8232      8233
      8232      8234      8232      8278      8278      8279      8278      8280
      8278      8281      8281      8282      8281      8283      8281      8284
      8284      8285      8284      8286      8284      8287      8287      8288
      8287      8289      8287      8290      8290      8291      8290      8292
      8290      8293      8293      8294      8293      8295      8293      8296
      8296      8297      8296      8298      8296      8299      8299      8300
      8299      8301      8299      8302      8302      8303      8302      8304
      8302      8305      8305      8306      8305      8307      8305      8308
      8308      8309      8308      8310      8308      8311      8311      8312
      8311      8313      8311      8314      8314      8315      8314      8316
      8314      8317      8317      8318      8317      8319      8317      8320
      8321      8322      8321      8323      8322      8323      8324      8325
      8324      8326      8325      8326      8327      8328      8327      8329
      8328      8329      8330      8331      8330      8332      8331      8332
      8333      8334      8333      8335      8334      8335      8336      8337
      8336      8338      8337      8338      8339      8340      8339      8341
      8340      8341      8342      8343      8342      8344      8343      8344
      8345      8346      8345      8347      8346      8347      8348      8349
      8348      8350      8349      8350      8351      8352      8351      8353
      8352      8353      8354      8355      8354      8356      8355      8356
      8357      8358      8357      8359      8358      8359      8360      8361
      8360      8362      8361      8362      8363      8364      8363      8365
      8364      8365      8366      8367      8366      8368      8367      8368
      8369      8370      8369      8371      8370      8371      8372      8373
      8372      8374      8373      8374      8375      8376      8375      8377
      8376      8377      8378      8379      8378      8380      8379      8380
      8381      8382      8381      8383      8382      8383      8384      8385
      8384      8386      8385      8386      8387      8388      8387      8389
      8388      8389      8390      8391      8390      8392      8391      8392
      8393      8394      8393      8395      8394      8395      8396      8397
      8396      8398      8397      8398      8399      8400      8399      8401
      8400      8401      8402      8403      8402      8404      8403      8404
      8405      8406      8405      8407      8406      8407      8408      8409
      8408      8410      8409      8410      8411      8412      8411      8413
      8412      8413      8414      8415      8414      8416      8415      8416
      8417      8418      8417      8419      8418      8419      8420      8421
      8420      8422      8421      8422      8423      8424      8423      8425
      8424      8425      8426      8427      8426      8428      8427      8428
      8429      8430      8429      8431      8430      8431      8432      8433
      8432      8434      8433      8434      8435      8436      8435      8437
      8436      8437      8438      8439      8438      8440      8439      8440
      8441      8442      8441      8443      8442      8443      8444      8445
      8444      8446      8445      8446      8447      8448      8447      8449
      8448      8449      8450      8451      8450      8452      8451      8452
      8453      8454      8453      8455      8454      8455      8456      8457
      8456      8458      8457      8458      8459      8460      8459      8461
      8460      8461      8462      8463      8462      8464      8463      8464
      8465      8466      8465      8467      8466      8467      8468      8469
      8468      8470      8469      8470      8471      8472      8471      8473
      8472      8473      8474      8475      8474      8476      8475      8476
      8477      8478      8477      8479      8478      8479      8480      8481
      8480      8482      8481      8482      8483      8484      8483      8485
      8484      8485      8486      8487      8486      8488      8487      8488
      8489      8490      8489      8491      8490      8491      8492      8493
      8492      8494      8493      8494      8495      8496      8495      8497
      8496      8497      8498      8499      8498      8500      8499      8500
      8501      8502      8501      8503      8502      8503      8504      8505
      8504      8506      8505      8506      8507      8508      8507      8509
      8508      8509      8510      8511      8510      8512      8511      8512
      8513      8514      8513      8515      8514      8515      8516      8517
      8516      8518      8517      8518      8519      8520      8519      8521
      8520      8521      8522      8523      8522      8524      8523      8524
      8525      8526      8525      8527      8526      8527      8528      8529
      8528      8530      8529      8530      8531      8532      8531      8533
      8532      8533      8534      8535      8534      8536      8535      8536
      8537      8538      8537      8539      8538      8539      8540      8541
      8540      8542      8541      8542      8543      8544      8543      8545
      8544      8545      8546      8547      8546      8548      8547      8548
      8549      8550      8549      8551      8550      8551      8552      8553
      8552      8554      8553      8554      8555      8556      8555      8557
      8556      8557      8558      8559      8558      8560      8559      8560
      8561      8562      8561      8563      8562      8563      8564      8565
      8564      8566      8565      8566      8567      8568      8567      8569
      8568      8569      8570      8571      8570      8572      8571      8572
      8573      8574      8573      8575      8574      8575      8576      8577
      8576      8578      8577      8578      8579      8580      8579      8581
      8580      8581      8582      8583      8582      8584      8583      8584
      8585      8586      8585      8587      8586      8587      8588      8589
      8588      8590      8589      8590      8591      8592      8591      8593
      8592      8593      8594      8595      8594      8596      8595      8596
      8597      8598      8597      8599      8598      8599      8600      8601
      8600      8602      8601      8602      8603      8604      8603      8605
      8604      8605      8606      8607      8606      8608      8607      8608
      8609      8610      8609      8611      8610      8611      8612      8613
      8612      8614      8613      8614      8615      8616      8615      8617
      8616      8617      8618      8619      8618      8620      8619      8620
      8621      8622      8621      8623      8622      8623      8624      8625
      8624      8626      8625      8626      8627      8628      8627      8629
      8628      8629      8630      8631      8630      8632      8631      8632
      8633      8634      8633      8635      8634      8635      8636      8637
      8636      8638      8637      8638      8639      8640      8639      8641
      8640      8641      8642      8643      8642      8644      8643      8644
      8645      8646      8645      8647      8646      8647      8648      8649
      8648      8650      8649      8650      8651      8652      8651      8653
      8652      8653      8654      8655      8654      8656      8655      8656
      8657      8658      8657      8659      8658      8659      8660      8661
      8660      8662      8661      8662      8663      8664      8663      8665
      8664      8665      8666      8667      8666      8668      8667      8668
      8669      8670      8669      8671      8670      8671      8672      8673
      8672      8674      8673      8674      8675      8676      8675      8677
      8676      8677      8678      8679      8678      8680      8679      8680
      8681      8682      8681      8683      8682      8683      8684      8685
      8684      8686      8685      8686      8687      8688      8687      8689
      8688      8689      8690      8691      8690      8692      8691      8692
      8693      8694      8693      8695      8694      8695      8696      8697
      8696      8698      8697      8698      8699      8700      8699      8701
      8700      8701      8702      8703      8702      8704      8703      8704
      8705      8706      8705      8707      8706      8707      8708      8709
      8708      8710      8709      8710      8711      8712      8711      8713
      8712      8713      8714      8715      8714      8716      8715      8716
      8717      8718      8717      8719      8718      8719      8720      8721
      8720      8722      8721      8722      8723      8724      8723      8725
      8724      8725      8726      8727      8726      8728      8727      8728
      8729      8730      8729      8731      8730      8731      8732      8733
      8732      8734      8733      8734      8735      8736      8735      8737
      8736      8737      8738      8739      8738      8740      8739      8740
      8741      8742      8741      8743      8742      8743      8744      8745
      8744      8746      8745      8746      8747      8748      8747      8749
      8748      8749      8750      8751      8750      8752      8751      8752
      8753      8754      8753      8755      8754      8755      8756      8757
      8756      8758      8757      8758      8759      8760      8759      8761
      8760      8761      8762      8763      8762      8764      8763      8764
      8765      8766      8765      8767      8766      8767      8768      8769
      8768      8770      8769      8770      8771      8772      8771      8773
      8772      8773      8774      8775      8774      8776      8775      8776
      8777      8778      8777      8779      8778      8779      8780      8781
      8780      8782      8781      8782      8783      8784      8783      8785
      8784      8785      8786      8787      8786      8788      8787      8788
      8789      8790      8789      8791      8790      8791      8792      8793
      8792      8794      8793      8794      8795      8796      8795      8797
      8796      8797      8798      8799      8798      8800      8799      8800
      8801      8802      8801      8803      8802      8803      8804      8805
      8804      8806      8805      8806      8807      8808      8807      8809
      8808      8809      8810      8811      8810      8812      8811      8812
      8813      8814      8813      8815      8814      8815      8816      8817
      8816      8818      8817      8818      8819      8820      8819      8821
      8820      8821      8822      8823      8822      8824      8823      8824
      8825      8826      8825      8827      8826      8827      8828      8829
      8828      8830      8829      8830      8831      8832      8831      8833
      8832      8833      8834      8835      8834      8836      8835      8836
      8837      8838      8837      8839      8838      8839      8840      8841
      8840      8842      8841      8842      8843      8844      8843      8845
      8844      8845      8846      8847      8846      8848      8847      8848
      8849      8850      8849      8851      8850      8851      8852      8853
      8852      8854      8853      8854      8855      8856      8855      8857
      8856      8857      8858      8859      8858      8860      8859      8860
      8861      8862      8861      8863      8862      8863      8864      8865
      8864      8866      8865      8866      8867      8868      8867      8869
      8868      8869      8870      8871      8870      8872      8871      8872
      8873      8874      8873      8875      8874      8875      8876      8877
      8876      8878      8877      8878      8879      8880      8879      8881
      8880      8881      8882      8883      8882      8884      8883      8884
      8885      8886      8885      8887      8886      8887      8888      8889
      8888      8890      8889      8890      8891      8892      8891      8893
      8892      8893      8894      8895      8894      8896      8895      8896
      8897      8898      8897      8899      8898      8899      8900      8901
      8900      8902      8901      8902      8903      8904      8903      8905
      8904      8905      8906      8907      8906      8908      8907      8908
      8909      8910      8909      8911      8910      8911      8912      8913
      8912      8914      8913      8914      8915      8916      8915      8917
      8916      8917      8918      8919      8918      8920      8919      8920
      8921      8922      8921      8923      8922      8923      8924      8925
      8924      8926      8925      8926      8927      8928      8927      8929
      8928      8929      8930      8931      8930      8932      8931      8932
      8933      8934      8933      8935      8934      8935      8936      8937
      8936      8938      8937      8938      8939      8940      8939      8941
      8940      8941      8942      8943      8942      8944      8943      8944
      8945      8946      8945      8947      8946      8947      8948      8949
      8948      8950      8949      8950      8951      8952      8951      8953
      8952      8953      8954      8955      8954      8956      8955      8956
      8957      8958      8957      8959      8958      8959      8960      8961
      8960      8962      8961      8962      8963      8964      8963      8965
      8964      8965      8966      8967      8966      8968      8967      8968
      8969      8970      8969      8971      8970      8971      8972      8973
      8972      8974      8973      8974      8975      8976      8975      8977
      8976      8977      8978      8979      8978      8980      8979      8980
      8981      8982      8981      8983      8982      8983      8984      8985
      8984      8986      8985      8986      8987      8988      8987      8989
      8988      8989      8990      8991      8990      8992      8991      8992
      8993      8994      8993      8995      8994      8995      8996      8997
      8996      8998      8997      8998      8999      9000      8999      9001
      9000      9001      9002      9003      9002      9004      9003      9004
      9005      9006      9005      9007      9006      9007      9008      9009
      9008      9010      9009      9010      9011      9012      9011      9013
      9012      9013      9014      9015      9014      9016      9015      9016
      9017      9018      9017      9019      9018      9019      9020      9021
      9020      9022      9021      9022      9023      9024      9023      9025
      9024      9025      9026      9027      9026      9028      9027      9028
      9029      9030      9029      9031      9030      9031      9032      9033
      9032      9034      9033      9034      9035      9036      9035      9037
      9036      9037      9038      9039      9038      9040      9039      9040
      9041      9042      9041      9043      9042      9043      9044      9045
      9044      9046      9045      9046      9047      9048      9047      9049
      9048      9049      9050      9051      9050      9052      9051      9052
      9053      9054      9053      9055      9054      9055      9056      9057
      9056      9058      9057      9058      9059      9060      9059      9061
      9060      9061      9062      9063      9062      9064      9063      9064
      9065      9066      9065      9067      9066      9067      9068      9069
      9068      9070      9069      9070      9071      9072      9071      9073
      9072      9073      9074      9075      9074      9076      9075      9076
      9077      9078      9077      9079      9078      9079      9080      9081
      9080      9082      9081      9082      9083      9084      9083      9085
      9084      9085      9086      9087      9086      9088      9087      9088
      9089      9090      9089      9091      9090      9091      9092      9093
      9092      9094      9093      9094      9095      9096      9095      9097
      9096      9097      9098      9099      9098      9100      9099      9100
      9101      9102      9101      9103      9102      9103      9104      9105
      9104      9106      9105      9106      9107      9108      9107      9109
      9108      9109      9110      9111      9110      9112      9111      9112
      9113      9114      9113      9115      9114      9115      9116      9117
      9116      9118      9117      9118      9119      9120      9119      9121
      9120      9121      9122      9123      9122      9124      9123      9124
      9125      9126      9125      9127      9126      9127      9128      9129
      9128      9130      9129      9130      9131      9132      9131      9133
      9132      9133      9134      9135      9134      9136      9135      9136
      9137      9138      9137      9139      9138      9139      9140      9141
      9140      9142      9141      9142      9143      9144      9143      9145
      9144      9145      9146      9147      9146      9148      9147      9148
      9149      9150      9149      9151      9150      9151      9152      9153
      9152      9154      9153      9154      9155      9156      9155      9157
      9156      9157      9158      9159      9158      9160      9159      9160
      9161      9162      9161      9163      9162      9163      9164      9165
      9164      9166      9165      9166      9167      9168      9167      9169
      9168      9169      9170      9171      9170      9172      9171      9172
      9173      9174      9173      9175      9174      9175      9176      9177
      9176      9178      9177      9178      9179      9180      9179      9181
      9180      9181      9182      9183      9182      9184      9183      9184
      9185      9186      9185      9187      9186      9187      9188      9189
      9188      9190      9189      9190      9191      9192      9191      9193
      9192      9193      9194      9195      9194      9196      9195      9196
      9197      9198      9197      9199      9198      9199      9200      9201
      9200      9202      9201      9202      9203      9204      9203      9205
      9204      9205      9206      9207      9206      9208      9207      9208
      9209      9210      9209      9211      9210      9211      9212      9213
      9212      9214      9213      9214      9215      9216      9215      9217
      9216      9217      9218      9219      9218      9220      9219      9220
      9221      9222      9221      9223      9222      9223      9224      9225
      9224      9226      9225      9226      9227      9228      9227      9229
      9228      9229      9230      9231      9230      9232      9231      9232
      9233      9234      9233      9235      9234      9235      9236      9237
      9236      9238      9237      9238      9239      9240      9239      9241
      9240      9241      9242      9243      9242      9244      9243      9244
      9245      9246      9245      9247      9246      9247      9248      9249
      9248      9250      9249      9250      9251      9252      9251      9253
      9252      9253      9254      9255      9254      9256      9255      9256
      9257      9258      9257      9259      9258      9259      9260      9261
      9260      9262      9261      9262      9263      9264      9263      9265
      9264      9265      9266      9267      9266      9268      9267      9268
      9269      9270      9269      9271      9270      9271      9272      9273
      9272      9274      9273      9274      9275      9276      9275      9277
      9276      9277      9278      9279      9278      9280      9279      9280
      9281      9282      9281      9283      9282      9283      9284      9285
      9284      9286      9285      9286      9287      9288      9287      9289
      9288      9289      9290      9291      9290      9292      9291      9292
      9293      9294      9293      9295      9294      9295      9296      9297
      9296      9298      9297      9298      9299      9300      9299      9301
      9300      9301      9302      9303      9302      9304      9303      9304
      9305      9306      9305      9307      9306      9307      9308      9309
      9308      9310      9309      9310      9311      9312      9311      9313
      9312      9313      9314      9315      9314      9316      9315      9316
      9317      9318      9317      9319      9318      9319      9320      9321
      9320      9322      9321      9322      9323      9324      9323      9325
      9324      9325      9326      9327      9326      9328      9327      9328
      9329      9330      9329      9331      9330      9331      9332      9333
      9332      9334      9333      9334      9335      9336      9335      9337
      9336      9337      9338      9339      9338      9340      9339      9340
      9341      9342      9341      9343      9342      9343      9344      9345
      9344      9346      9345      9346      9347      9348      9347      9349
      9348      9349      9350      9351      9350      9352      9351      9352
      9353      9354      9353      9355      9354      9355      9356      9357
      9356      9358      9357      9358      9359      9360      9359      9361
      9360      9361      9362      9363      9362      9364      9363      9364
      9365      9366      9365      9367      9366      9367      9368      9369
      9368      9370      9369      9370      9371      9372      9371      9373
      9372      9373      9374      9375      9374      9376      9375      9376
      9377      9378      9377      9379      9378      9379      9380      9381
      9380      9382      9381      9382      9383      9384      9383      9385
      9384      9385      9386      9387      9386      9388      9387      9388
      9389      9390      9389      9391      9390      9391      9392      9393
      9392      9394      9393      9394      9395      9396      9395      9397
      9396      9397      9398      9399      9398      9400      9399      9400
      9401      9402      9401      9403      9402      9403      9404      9405
      9404      9406      9405      9406      9407      9408      9407      9409
      9408      9409      9410      9411      9410      9412      9411      9412
      9413      9414      9413      9415      9414      9415      9416      9417
      9416      9418      9417      9418      9419      9420      9419      9421
      9420      9421      9422      9423      9422      9424      9423      9424
      9425      9426      9425      9427      9426      9427      9428      9429
      9428      9430      9429      9430      9431      9432      9431      9433
      9432      9433      9434      9435      9434      9436      9435      9436
      9437      9438      9437      9439      9438      9439      9440      9441
      9440      9442      9441      9442      9443      9444      9443      9445
      9444      9445      9446      9447      9446      9448      9447      9448
      9449      9450      9449      9451      9450      9451      9452      9453
      9452      9454      9453      9454      9455      9456      9455      9457
      9456      9457      9458      9459      9458      9460      9459      9460
      9461      9462      9461      9463      9462      9463      9464      9465
      9464      9466      9465      9466      9467      9468      9467      9469
      9468      9469      9470      9471      9470      9472      9471      9472
      9473      9474      9473      9475      9474      9475      9476      9477
      9476      9478      9477      9478      9479      9480      9479      9481
      9480      9481      9482      9483      9482      9484      9483      9484
      9485      9486      9485      9487      9486      9487      9488      9489
      9488      9490      9489      9490      9491      9492      9491      9493
      9492      9493      9494      9495      9494      9496      9495      9496
      9497      9498      9497      9499      9498      9499      9500      9501
      9500      9502      9501      9502      9503      9504      9503      9505
      9504      9505      9506      9507      9506      9508      9507      9508
      9509      9510      9509      9511      9510      9511      9512      9513
      9512      9514      9513      9514      9515      9516      9515      9517
      9516      9517      9518      9519      9518      9520      9519      9520
      9521      9522      9521      9523      9522      9523      9524      9525
      9524      9526      9525      9526      9527      9528      9527      9529
      9528      9529      9530      9531      9530      9532      9531      9532
      9533      9534      9533      9535      9534      9535      9536      9537
      9536      9538      9537      9538      9539      9540      9539      9541
      9540      9541      9542      9543      9542      9544      9543      9544
      9545      9546      9545      9547      9546      9547      9548      9549
      9548      9550      9549      9550      9551      9552      9551      9553
      9552      9553      9554      9555      9554      9556      9555      9556
      9557      9558      9557      9559      9558      9559      9560      9561
      9560      9562      9561      9562      9563      9564      9563      9565
      9564      9565      9566      9567      9566      9568      9567      9568
      9569      9570      9569      9571      9570      9571      9572      9573
      9572      9574      9573      9574      9575      9576      9575      9577
      9576      9577      9578      9579      9578      9580      9579      9580
      9581      9582      9581      9583      9582      9583      9584      9585
      9584      9586      9585      9586      9587      9588      9587      9589
      9588      9589      9590      9591      9590      9592      9591      9592
      9593      9594      9593      9595      9594      9595      9596      9597
      9596      9598      9597      9598      9599      9600      9599      9601
      9600      9601      9602      9603      9602      9604      9603      9604
      9605      9606      9605      9607      9606      9607      9608      9609
      9608      9610      9609      9610      9611      9612      9611      9613
      9612      9613      9614      9615      9614      9616      9615      9616
      9617      9618      9617      9619      9618      9619      9620      9621
      9620      9622      9621      9622      9623      9624      9623      9625
      9624      9625      9626      9627      9626      9628      9627      9628
      9629      9630      9629      9631      9630      9631      9632      9633
      9632      9634      9633      9634      9635      9636      9635      9637
      9636      9637      9638      9639      9638      9640      9639      9640
      9641      9642      9641      9643      9642      9643      9644      9645
      9644      9646      9645      9646      9647      9648      9647      9649
      9648      9649      9650      9651      9650      9652      9651      9652
      9653      9654      9653      9655      9654      9655      9656      9657
      9656      9658      9657      9658      9659      9660      9659      9661
      9660      9661      9662      9663      9662      9664      9663      9664
      9665      9666      9665      9667      9666      9667      9668      9669
      9668      9670      9669      9670      9671      9672      9671      9673
      9672      9673      9674      9675      9674      9676      9675      9676
      9677      9678      9677      9679      9678      9679      9680      9681
      9680      9682      9681      9682      9683      9684      9683      9685
      9684      9685      9686      9687      9686      9688      9687      9688
      9689      9690      9689      9691      9690      9691      9692      9693
      9692      9694      9693      9694      9695      9696      9695      9697
      9696      9697      9698      9699      9698      9700      9699      9700
      9701      9702      9701      9703      9702      9703      9704      9705
      9704      9706      9705      9706      9707      9708      9707      9709
      9708      9709      9710      9711      9710      9712      9711      9712
      9713      9714      9713      9715      9714      9715      9716      9717
      9716      9718      9717      9718      9719      9720      9719      9721
      9720      9721      9722      9723      9722      9724      9723      9724
      9725      9726      9725      9727      9726      9727      9728      9729
      9728      9730      9729      9730      9731      9732      9731      9733
      9732      9733      9734      9735      9734      9736      9735      9736
      9737      9738      9737      9739      9738      9739      9740      9741
      9740      9742      9741      9742      9743      9744      9743      9745
      9744      9745      9746      9747      9746      9748      9747      9748
      9749      9750      9749      9751      9750      9751      9752      9753
      9752      9754      9753      9754      9755      9756      9755      9757
      9756      9757      9758      9759      9758      9760      9759      9760
      9761      9762      9761      9763      9762      9763      9764      9765
      9764      9766      9765      9766      9767      9768      9767      9769
      9768      9769      9770      9771      9770      9772      9771      9772
      9773      9774      9773      9775      9774      9775      9776      9777
      9776      9778      9777      9778      9779      9780      9779      9781
      9780      9781      9782      9783      9782      9784      9783      9784
      9785      9786      9785      9787      9786      9787      9788      9789
      9788      9790      9789      9790      9791      9792      9791      9793
      9792      9793      9794      9795      9794      9796      9795      9796
      9797      9798      9797      9799      9798      9799      9800      9801
      9800      9802      9801      9802      9803      9804      9803      9805
      9804      9805      9806      9807      9806      9808      9807      9808
      9809      9810      9809      9811      9810      9811      9812      9813
      9812      9814      9813      9814      9815      9816      9815      9817
      9816      9817      9818      9819      9818      9820      9819      9820
      9821      9822      9821      9823      9822      9823      9824      9825
      9824      9826      9825      9826      9827      9828      9827      9829
      9828      9829      9830      9831      9830      9832      9831      9832
      9833      9834      9833      9835      9834      9835      9836      9837
      9836      9838      9837      9838      9839      9840      9839      9841
      9840      9841      9842      9843      9842      9844      9843      9844
      9845      9846      9845      9847      9846      9847      9848      9849
      9848      9850      9849      9850      9851      9852      9851      9853
      9852      9853      9854      9855      9854      9856      9855      9856
      9857      9858      9857      9859      9858      9859      9860      9861
      9860      9862      9861      9862      9863      9864      9863      9865
      9864      9865      9866      9867      9866      9868      9867      9868
      9869      9870      9869      9871      9870      9871      9872      9873
      9872      9874      9873      9874      9875      9876      9875      9877
      9876      9877      9878      9879      9878      9880      9879      9880
      9881      9882      9881      9883      9882      9883      9884      9885
      9884      9886      9885      9886      9887      9888      9887      9889
      9888      9889      9890      9891      9890      9892      9891      9892
      9893      9894      9893      9895      9894      9895      9896      9897
      9896      9898      9897      9898      9899      9900      9899      9901
      9900      9901      9902      9903      9902      9904      9903      9904
      9905      9906      9905      9907      9906      9907      9908      9909
      9908      9910      9909      9910      9911      9912      9911      9913
      9912      9913      9914      9915      9914      9916      9915      9916
      9917      9918      9917      9919      9918      9919      9920      9921
      9920      9922      9921      9922      9923      9924      9923      9925
      9924      9925      9926      9927      9926      9928      9927      9928
      9929      9930      9929      9931      9930      9931      9932      9933
      9932      9934      9933      9934      9935      9936      9935      9937
      9936      9937      9938      9939      9938      9940      9939      9940
      9941      9942      9941      9943      9942      9943      9944      9945
      9944      9946      9945      9946      9947      9948      9947      9949
      9948      9949      9950      9951      9950      9952      9951      9952
      9953      9954      9953      9955      9954      9955      9956      9957
      9956      9958      9957      9958      9959      9960      9959      9961
      9960      9961      9962      9963      9962      9964      9963      9964
      9965      9966      9965      9967      9966      9967      9968      9969
      9968      9970      9969      9970      9971      9972      9971      9973
      9972      9973      9974      9975      9974      9976      9975      9976
      9977      9978      9977      9979      9978      9979      9980      9981
      9980      9982      9981      9982      9983      9984      9983      9985
      9984      9985      9986      9987      9986      9988      9987      9988
      9989      9990      9989      9991      9990      9991      9992      9993
      9992      9994      9993      9994      9995      9996      9995      9997
      9996      9997      9998      9999      9998     10000      9999     10000
     10001     10002     10001     10003     10002     10003     10004     10005
     10004     10006     10005     10006     10007     10008     10007     10009
     10008     10009     10010     10011     10010     10012     10011     10012
     10013     10014     10013     10015     10014     10015     10016     10017
     10016     10018     10017     10018     10019     10020     10019     10021
     10020     10021     10022     10023     10022     10024     10023     10024
     10025     10026     10025     10027     10026     10027     10028     10029
     10028     10030     10029     10030     10031     10032     10031     10033
     10032     10033     10034     10035     10034     10036     10035     10036
     10037     10038     10037     10039     10038     10039     10040     10041
     10040     10042     10041     10042     10043     10044     10043     10045
     10044     10045     10046     10047     10046     10048     10047     10048
     10049     10050     10049     10051     10050     10051     10052     10053
     10052     10054     10053     10054     10055     10056     10055     10057
     10056     10057     10058     10059     10058     10060     10059     10060
     10061     10062     10061     10063     10062     10063     10064     10065
     10064     10066     10065     10066     10067     10068     10067     10069
     10068     10069     10070     10071     10070     10072     10071     10072
     10073     10074     10073     10075     10074     10075     10076     10077
     10076     10078     10077     10078     10079     10080     10079     10081
     10080     10081     10082     10083     10082     10084     10083     10084
     10085     10086     10085     10087     10086     10087     10088     10089
     10088     10090     10089     10090     10091     10092     10091     10093
     10092     10093     10094     10095     10094     10096     10095     10096
     10097     10098     10097     10099     10098     10099     10100     10101
     10100     10102     10101     10102     10103     10104     10103     10105
     10104     10105     10106     10107     10106     10108     10107     10108
     10109     10110     10109     10111     10110     10111     10112     10113
     10112     10114     10113     10114     10115     10116     10115     10117
     10116     10117     10118     10119     10118     10120     10119     10120
     10121     10122     10121     10123     10122     10123     10124     10125
     10124     10126     10125     10126     10127     10128     10127     10129
     10128     10129     10130     10131     10130     10132     10131     10132
     10133     10134     10133     10135     10134     10135     10136     10137
     10136     10138     10137     10138     10139     10140     10139     10141
     10140     10141     10142     10143     10142     10144     10143     10144
     10145     10146     10145     10147     10146     10147     10148     10149
     10148     10150     10149     10150     10151     10152     10151     10153
     10152     10153     10154     10155     10154     10156     10155     10156
     10157     10158     10157     10159     10158     10159     10160     10161
     10160     10162     10161     10162     10163     10164     10163     10165
     10164     10165     10166     10167     10166     10168     10167     10168
     10169     10170     10169     10171     10170     10171     10172     10173
     10172     10174     10173     10174     10175     10176     10175     10177
     10176     10177     10178     10179     10178     10180     10179     10180
     10181     10182     10181     10183     10182     10183     10184     10185
     10184     10186     10185     10186     10187     10188     10187     10189
     10188     10189     10190     10191     10190     10192     10191     10192
     10193     10194     10193     10195     10194     10195     10196     10197
     10196     10198     10197     10198     10199     10200     10199     10201
     10200     10201     10202     10203     10202     10204     10203     10204
     10205     10206     10205     10207     10206     10207     10208     10209
     10208     10210     10209     10210     10211     10212     10211     10213
     10212     10213     10214     10215     10214     10216     10215     10216
     10217     10218     10217     10219     10218     10219     10220     10221
     10220     10222     10221     10222     10223     10224     10223     10225
     10224     10225     10226     10227     10226     10228     10227     10228
     10229     10230     10229     10231     10230     10231     10232     10233
     10232     10234     10233     10234     10235     10236     10235     10237
     10236     10237     10238     10239     10238     10240     10239     10240
     10241     10242     10241     10243     10242     10243     10244     10245
     10244     10246     10245     10246     10247     10248     10247     10249
     10248     10249     10250     10251     10250     10252     10251     10252
     10253     10254     10253     10255     10254     10255     10256     10257
     10256     10258     10257     10258     10259     10260     10259     10261
     10260     10261     10262     10263     10262     10264     10263     10264
     10265     10266     10265     10267     10266     10267     10268     10269
     10268     10270     10269     10270     10271     10272     10271     10273
     10272     10273     10274     10275     10274     10276     10275     10276
     10277     10278     10277     10279     10278     10279     10280     10281
     10280     10282     10281     10282     10283     10284     10283     10285
     10284     10285     10286     10287     10286     10288     10287     10288
     10289     10290     10289     10291     10290     10291     10292     10293
     10292     10294     10293     10294     10295     10296     10295     10297
     10296     10297     10298     10299     10298     10300     10299     10300
     10301     10302     10301     10303     10302     10303     10304     10305
     10304     10306     10305     10306     10307     10308     10307     10309
     10308     10309     10310     10311     10310     10312     10311     10312
     10313     10314     10313     10315     10314     10315     10316     10317
     10316     10318     10317     10318     10319     10320     10319     10321
     10320     10321     10322     10323     10322     10324     10323     10324
     10325     10326     10325     10327     10326     10327     10328     10329
     10328     10330     10329     10330     10331     10332     10331     10333
     10332     10333     10334     10335     10334     10336     10335     10336
     10337     10338     10337     10339     10338     10339     10340     10341
     10340     10342     10341     10342     10343     10344     10343     10345
     10344     10345     10346     10347     10346     10348     10347     10348
     10349     10350     10349     10351     10350     10351     10352     10353
     10352     10354     10353     10354     10355     10356     10355     10357
     10356     10357     10358     10359     10358     10360     10359     10360
     10361     10362     10361     10363     10362     10363     10364     10365
     10364     10366     10365     10366     10367     10368     10367     10369
     10368     10369     10370     10371     10370     10372     10371     10372
     10373     10374     10373     10375     10374     10375     10376     10377
     10376     10378     10377     10378     10379     10380     10379     10381
     10380     10381     10382     10383     10382     10384     10383     10384
     10385     10386     10385     10387     10386     10387     10388     10389
     10388     10390     10389     10390     10391     10392     10391     10393
     10392     10393     10394     10395     10394     10396     10395     10396
     10397     10398     10397     10399     10398     10399     10400     10401
     10400     10402     10401     10402     10403     10404     10403     10405
     10404     10405     10406     10407     10406     10408     10407     10408
     10409     10410     10409     10411     10410     10411     10412     10413
     10412     10414     10413     10414     10415     10416     10415     10417
     10416     10417     10418     10419     10418     10420     10419     10420
     10421     10422     10421     10423     10422     10423     10424     10425
     10424     10426     10425     10426     10427     10428     10427     10429
     10428     10429     10430     10431     10430     10432     10431     10432
     10433     10434     10433     10435     10434     10435     10436     10437
     10436     10438     10437     10438     10439     10440     10439     10441
     10440     10441     10442     10443     10442     10444     10443     10444
     10445     10446     10445     10447     10446     10447     10448     10449
     10448     10450     10449     10450     10451     10452     10451     10453
     10452     10453     10454     10455     10454     10456     10455     10456
     10457     10458     10457     10459     10458     10459     10460     10461
     10460     10462     10461     10462     10463     10464     10463     10465
     10464     10465     10466     10467     10466     10468     10467     10468
     10469     10470     10469     10471     10470     10471     10472     10473
     10472     10474     10473     10474     10475     10476     10475     10477
     10476     10477     10478     10479     10478     10480     10479     10480
     10481     10482     10481     10483     10482     10483     10484     10485
     10484     10486     10485     10486     10487     10488     10487     10489
     10488     10489     10490     10491     10490     10492     10491     10492
     10493     10494     10493     10495     10494     10495     10496     10497
     10496     10498     10497     10498     10499     10500     10499     10501
     10500     10501     10502     10503     10502     10504     10503     10504
     10505     10506     10505     10507     10506     10507     10508     10509
     10508     10510     10509     10510     10511     10512     10511     10513
     10512     10513     10514     10515     10514     10516     10515     10516
     10517     10518     10517     10519     10518     10519     10520     10521
     10520     10522     10521     10522     10523     10524     10523     10525
     10524     10525     10526     10527     10526     10528     10527     10528
     10529     10530     10529     10531     10530     10531     10532     10533
     10532     10534     10533     10534     10535     10536     10535     10537
     10536     10537     10538     10539     10538     10540     10539     10540
     10541     10542     10541     10543     10542     10543     10544     10545
     10544     10546     10545     10546     10547     10548     10547     10549
     10548     10549     10550     10551     10550     10552     10551     10552
     10553     10554     10553     10555     10554     10555     10556     10557
     10556     10558     10557     10558     10559     10560     10559     10561
     10560     10561     10562     10563     10562     10564     10563     10564
     10565     10566     10565     10567     10566     10567     10568     10569
     10568     10570     10569     10570     10571     10572     10571     10573
     10572     10573     10574     10575     10574     10576     10575     10576
     10577     10578     10577     10579     10578     10579     10580     10581
     10580     10582     10581     10582     10583     10584     10583     10585
     10584     10585     10586     10587     10586     10588     10587     10588
     10589     10590     10589     10591     10590     10591     10592     10593
     10592     10594     10593     10594     10595     10596     10595     10597
     10596     10597     10598     10599     10598     10600     10599     10600
     10601     10602     10601     10603     10602     10603     10604     10605
     10604     10606     10605     10606     10607     10608     10607     10609
     10608     10609     10610     10611     10610     10612     10611     10612
     10613     10614     10613     10615     10614     10615     10616     10617
     10616     10618     10617     10618     10619     10620     10619     10621
     10620     10621     10622     10623     10622     10624     10623     10624
     10625     10626     10625     10627     10626     10627     10628     10629
     10628     10630     10629     10630     10631     10632     10631     10633
     10632     10633     10634     10635     10634     10636     10635     10636
     10637     10638     10637     10639     10638     10639     10640     10641
     10640     10642     10641     10642     10643     10644     10643     10645
     10644     10645     10646     10647     10646     10648     10647     10648
     10649     10650     10649     10651     10650     10651     10652     10653
     10652     10654     10653     10654     10655     10656     10655     10657
     10656     10657     10658     10659     10658     10660     10659     10660
     10661     10662     10661     10663     10662     10663     10664     10665
     10664     10666     10665     10666     10667     10668     10667     10669
     10668     10669     10670     10671     10670     10672     10671     10672
     10673     10674     10673     10675     10674     10675     10676     10677
     10676     10678     10677     10678     10679     10680     10679     10681
     10680     10681     10682     10683     10682     10684     10683     10684
     10685     10686     10685     10687     10686     10687     10688     10689
     10688     10690     10689     10690     10691     10692     10691     10693
     10692     10693     10694     10695     10694     10696     10695     10696
     10697     10698     10697     10699     10698     10699     10700     10701
     10700     10702     10701     10702     10703     10704     10703     10705
     10704     10705     10706     10707     10706     10708     10707     10708
     10709     10710     10709     10711     10710     10711     10712     10713
     10712     10714     10713     10714     10715     10716     10715     10717
     10716     10717     10718     10719     10718     10720     10719     10720
     10721     10722     10721     10723     10722     10723     10724     10725
     10724     10726     10725     10726     10727     10728     10727     10729
     10728     10729     10730     10731     10730     10732     10731     10732
     10733     10734     10733     10735     10734     10735     10736     10737
     10736     10738     10737     10738     10739     10740     10739     10741
     10740     10741     10742     10743     10742     10744     10743     10744
     10745     10746     10745     10747     10746     10747     10748     10749
     10748     10750     10749     10750     10751     10752     10751     10753
     10752     10753     10754     10755     10754     10756     10755     10756
     10757     10758     10757     10759     10758     10759     10760     10761
     10760     10762     10761     10762     10763     10764     10763     10765
     10764     10765     10766     10767     10766     10768     10767     10768
     10769     10770     10769     10771     10770     10771     10772     10773
     10772     10774     10773     10774     10775     10776     10775     10777
     10776     10777     10778     10779     10778     10780     10779     10780
     10781     10782     10781     10783     10782     10783     10784     10785
     10784     10786     10785     10786     10787     10788     10787     10789
     10788     10789     10790     10791     10790     10792     10791     10792
     10793     10794     10793     10795     10794     10795     10796     10797
     10796     10798     10797     10798     10799     10800     10799     10801
     10800     10801     10802     10803     10802     10804     10803     10804
     10805     10806     10805     10807     10806     10807     10808     10809
     10808     10810     10809     10810     10811     10812     10811     10813
     10812     10813     10814     10815     10814     10816     10815     10816
     10817     10818     10817     10819     10818     10819     10820     10821
     10820     10822     10821     10822     10823     10824     10823     10825
     10824     10825     10826     10827     10826     10828     10827     10828
     10829     10830     10829     10831     10830     10831     10832     10833
     10832     10834     10833     10834     10835     10836     10835     10837
     10836     10837     10838     10839     10838     10840     10839     10840
     10841     10842     10841     10843     10842     10843     10844     10845
     10844     10846     10845     10846     10847     10848     10847     10849
     10848     10849     10850     10851     10850     10852     10851     10852
     10853     10854     10853     10855     10854     10855     10856     10857
     10856     10858     10857     10858     10859     10860     10859     10861
     10860     10861     10862     10863     10862     10864     10863     10864
     10865     10866     10865     10867     10866     10867     10868     10869
     10868     10870     10869     10870     10871     10872     10871     10873
     10872     10873     10874     10875     10874     10876     10875     10876
     10877     10878     10877     10879     10878     10879     10880     10881
     10880     10882     10881     10882     10883     10884     10883     10885
     10884     10885     10886     10887     10886     10888     10887     10888
     10889     10890     10889     10891     10890     10891     10892     10893
     10892     10894     10893     10894     10895     10896     10895     10897
     10896     10897     10898     10899     10898     10900     10899     10900
     10901     10902     10901     10903     10902     10903     10904     10905
     10904     10906     10905     10906     10907     10908     10907     10909
     10908     10909     10910     10911     10910     10912     10911     10912
     10913     10914     10913     10915     10914     10915     10916     10917
     10916     10918     10917     10918     10919     10920     10919     10921
     10920     10921     10922     10923     10922     10924     10923     10924
     10925     10926     10925     10927     10926     10927     10928     10929
     10928     10930     10929     10930     10931     10932     10931     10933
     10932     10933     10934     10935     10934     10936     10935     10936
     10937     10938     10937     10939     10938     10939     10940     10941
     10940     10942     10941     10942     10943     10944     10943     10945
     10944     10945     10946     10947     10946     10948     10947     10948
     10949     10950     10949     10951     10950     10951     10952     10953
     10952     10954     10953     10954     10955     10956     10955     10957
     10956     10957     10958     10959     10958     10960     10959     10960
     10961     10962     10961     10963     10962     10963     10964     10965
     10964     10966     10965     10966     10967     10968     10967     10969
     10968     10969     10970     10971     10970     10972     10971     10972
     10973     10974     10973     10975     10974     10975     10976     10977
     10976     10978     10977     10978     10979     10980     10979     10981
     10980     10981     10982     10983     10982     10984     10983     10984
     10985     10986     10985     10987     10986     10987     10988     10989
     10988     10990     10989     10990     10991     10992     10991     10993
     10992     10993     10994     10995     10994     10996     10995     10996
     10997     10998     10997     10999     10998     10999     11000     11001
     11000     11002     11001     11002     11003     11004     11003     11005
     11004     11005     11006     11007     11006     11008     11007     11008
     11009     11010     11009     11011     11010     11011     11012     11013
     11012     11014     11013     11014     11015     11016     11015     11017
     11016     11017     11018     11019     11018     11020     11019     11020
     11021     11022     11021     11023     11022     11023     11024     11025
     11024     11026     11025     11026     11027     11028     11027     11029
     11028     11029     11030     11031     11030     11032     11031     11032
     11033     11034     11033     11035     11034     11035     11036     11037
     11036     11038     11037     11038     11039     11040     11039     11041
     11040     11041     11042     11043     11042     11044     11043     11044
     11045     11046     11045     11047     11046     11047     11048     11049
     11048     11050     11049     11050     11051     11052     11051     11053
     11052     11053     11054     11055     11054     11056     11055     11056
     11057     11058     11057     11059     11058     11059     11060     11061
     11060     11062     11061     11062     11063     11064     11063     11065
     11064     11065     11066     11067     11066     11068     11067     11068
     11069     11070     11069     11071     11070     11071     11072     11073
     11072     11074     11073     11074     11075     11076     11075     11077
     11076     11077     11078     11079     11078     11080     11079     11080
     11081     11082     11081     11083     11082     11083     11084     11085
     11084     11086     11085     11086     11087     11088     11087     11089
     11088     11089     11090     11091     11090     11092     11091     11092
     11093     11094     11093     11095     11094     11095     11096     11097
     11096     11098     11097     11098     11099     11100     11099     11101
     11100     11101     11102     11103     11102     11104     11103     11104
     11105     11106     11105     11107     11106     11107     11108     11109
     11108     11110     11109     11110     11111     11112     11111     11113
     11112     11113     11114     11115     11114     11116     11115     11116
     11117     11118     11117     11119     11118     11119     11120     11121
     11120     11122     11121     11122     11123     11124     11123     11125
     11124     11125     11126     11127     11126     11128     11127     11128
     11129     11130     11129     11131     11130     11131     11132     11133
     11132     11134     11133     11134     11135     11136     11135     11137
     11136     11137     11138     11139     11138     11140     11139     11140
     11141     11142     11141     11143     11142     11143     11144     11145
     11144     11146     11145     11146     11147     11148     11147     11149
     11148     11149     11150     11151     11150     11152     11151     11152
     11153     11154     11153     11155     11154     11155     11156     11157
     11156     11158     11157     11158     11159     11160     11159     11161
     11160     11161     11162     11163     11162     11164     11163     11164
     11165     11166     11165     11167     11166     11167     11168     11169
     11168     11170     11169     11170     11171     11172     11171     11173
     11172     11173     11174     11175     11174     11176     11175     11176
     11177     11178     11177     11179     11178     11179     11180     11181
     11180     11182     11181     11182     11183     11184     11183     11185
     11184     11185     11186     11187     11186     11188     11187     11188
     11189     11190     11189     11191     11190     11191     11192     11193
     11192     11194     11193     11194     11195     11196     11195     11197
     11196     11197     11198     11199     11198     11200     11199     11200
     11201     11202     11201     11203     11202     11203     11204     11205
     11204     11206     11205     11206     11207     11208     11207     11209
     11208     11209     11210     11211     11210     11212     11211     11212
     11213     11214     11213     11215     11214     11215     11216     11217
     11216     11218     11217     11218     11219     11220     11219     11221
     11220     11221     11222     11223     11222     11224     11223     11224
     11225     11226     11225     11227     11226     11227     11228     11229
     11228     11230     11229     11230     11231     11232     11231     11233
     11232     11233     11234     11235     11234     11236     11235     11236
     11237     11238     11237     11239     11238     11239     11240     11241
     11240     11242     11241     11242     11243     11244     11243     11245
     11244     11245     11246     11247     11246     11248     11247     11248
     11249     11250     11249     11251     11250     11251     11252     11253
     11252     11254     11253     11254     11255     11256     11255     11257
     11256     11257     11258     11259     11258     11260     11259     11260
     11261     11262     11261     11263     11262     11263     11264     11265
     11264     11266     11265     11266     11267     11268     11267     11269
     11268     11269     11270     11271     11270     11272     11271     11272
     11273     11274     11273     11275     11274     11275     11276     11277
     11276     11278     11277     11278     11279     11280     11279     11281
     11280     11281     11282     11283     11282     11284     11283     11284
     11285     11286     11285     11287     11286     11287     11288     11289
     11288     11290     11289     11290     11291     11292     11291     11293
     11292     11293     11294     11295     11294     11296     11295     11296
     11297     11298     11297     11299     11298     11299     11300     11301
     11300     11302     11301     11302     11303     11304     11303     11305
     11304     11305     11306     11307     11306     11308     11307     11308
     11309     11310     11309     11311     11310     11311     11312     11313
     11312     11314     11313     11314     11315     11316     11315     11317
     11316     11317     11318     11319     11318     11320     11319     11320
     11321     11322     11321     11323     11322     11323     11324     11325
     11324     11326     11325     11326     11327     11328     11327     11329
     11328     11329     11330     11331     11330     11332     11331     11332
     11333     11334     11333     11335     11334     11335     11336     11337
     11336     11338     11337     11338     11339     11340     11339     11341
     11340     11341     11342     11343     11342     11344     11343     11344
     11345     11346     11345     11347     11346     11347     11348     11349
     11348     11350     11349     11350     11351     11352     11351     11353
     11352     11353     11354     11355     11354     11356     11355     11356
     11357     11358     11357     11359     11358     11359     11360     11361
     11360     11362     11361     11362     11363     11364     11363     11365
     11364     11365     11366     11367     11366     11368     11367     11368
     11369     11370     11369     11371     11370     11371     11372     11373
     11372     11374     11373     11374     11375     11376     11375     11377
     11376     11377     11378     11379     11378     11380     11379     11380
     11381     11382     11381     11383     11382     11383     11384     11385
     11384     11386     11385     11386     11387     11388     11387     11389
     11388     11389     11390     11391     11390     11392     11391     11392
     11393     11394     11393     11395     11394     11395     11396     11397
     11396     11398     11397     11398     11399     11400     11399     11401
     11400     11401     11402     11403     11402     11404     11403     11404
     11405     11406     11405     11407     11406     11407     11408     11409
     11408     11410     11409     11410     11411     11412     11411     11413
     11412     11413     11414     11415     11414     11416     11415     11416
     11417     11418     11417     11419     11418     11419     11420     11421
     11420     11422     11421     11422     11423     11424     11423     11425
     11424     11425     11426     11427     11426     11428     11427     11428
     11429     11430     11429     11431     11430     11431     11432     11433
     11432     11434     11433     11434     11435     11436     11435     11437
     11436     11437     11438     11439     11438     11440     11439     11440
     11441     11442     11441     11443     11442     11443     11444     11445
     11444     11446     11445     11446     11447     11448     11447     11449
     11448     11449     11450     11451     11450     11452     11451     11452
     11453     11454     11453     11455     11454     11455     11456     11457
     11456     11458     11457     11458     11459     11460     11459     11461
     11460     11461     11462     11463     11462     11464     11463     11464
     11465     11466     11465     11467     11466     11467     11468     11469
     11468     11470     11469     11470     11471     11472     11471     11473
     11472     11473     11474     11475     11474     11476     11475     11476
     11477     11478     11477     11479     11478     11479     11480     11481
     11480     11482     11481     11482     11483     11484     11483     11485
     11484     11485     11486     11487     11486     11488     11487     11488
     11489     11490     11489     11491     11490     11491     11492     11493
     11492     11494     11493     11494     11495     11496     11495     11497
     11496     11497     11498     11499     11498     11500     11499     11500
     11501     11502     11501     11503     11502     11503     11504     11505
     11504     11506     11505     11506     11507     11508     11507     11509
     11508     11509     11510     11511     11510     11512     11511     11512
     11513     11514     11513     11515     11514     11515     11516     11517
     11516     11518     11517     11518     11519     11520     11519     11521
     11520     11521     11522     11523     11522     11524     11523     11524
     11525     11526     11525     11527     11526     11527     11528     11529
     11528     11530     11529     11530     11531     11532     11531     11533
     11532     11533     11534     11535     11534     11536     11535     11536
     11537     11538     11537     11539     11538     11539     11540     11541
     11540     11542     11541     11542     11543     11544     11543     11545
     11544     11545     11546     11547     11546     11548     11547     11548
     11549     11550     11549     11551     11550     11551     11552     11553
     11552     11554     11553     11554     11555     11556     11555     11557
     11556     11557     11558     11559     11558     11560     11559     11560
     11561     11562     11561     11563     11562     11563     11564     11565
     11564     11566     11565     11566     11567     11568     11567     11569
     11568     11569     11570     11571     11570     11572     11571     11572
     11573     11574     11573     11575     11574     11575     11576     11577
     11576     11578     11577     11578     11579     11580     11579     11581
     11580     11581     11582     11583     11582     11584     11583     11584
     11585     11586     11585     11587     11586     11587     11588     11589
     11588     11590     11589     11590     11591     11592     11591     11593
     11592     11593     11594     11595     11594     11596     11595     11596
     11597     11598     11597     11599     11598     11599     11600     11601
     11600     11602     11601     11602     11603     11604     11603     11605
     11604     11605     11606     11607     11606     11608     11607     11608
     11609     11610     11609     11611     11610     11611     11612     11613
     11612     11614     11613     11614     11615     11616     11615     11617
     11616     11617     11618     11619     11618     11620     11619     11620
     11621     11622     11621     11623     11622     11623     11624     11625
     11624     11626     11625     11626     11627     11628     11627     11629
     11628     11629     11630     11631     11630     11632     11631     11632
     11633     11634     11633     11635     11634     11635     11636     11637
     11636     11638     11637     11638     11639     11640     11639     11641
     11640     11641     11642     11643     11642     11644     11643     11644
     11645     11646     11645     11647     11646     11647     11648     11649
     11648     11650     11649     11650     11651     11652     11651     11653
     11652     11653     11654     11655     11654     11656     11655     11656
     11657     11658     11657     11659     11658     11659     11660     11661
     11660     11662     11661     11662     11663     11664     11663     11665
     11664     11665     11666     11667     11666     11668     11667     11668
     11669     11670     11669     11671     11670     11671     11672     11673
     11672     11674     11673     11674     11675     11676     11675     11677
     11676     11677     11678     11679     11678     11680     11679     11680
     11681     11682     11681     11683     11682     11683     11684     11685
     11684     11686     11685     11686     11687     11688     11687     11689
     11688     11689     11690     11691     11690     11692     11691     11692
     11693     11694     11693     11695     11694     11695     11696     11697
     11696     11698     11697     11698     11699     11700     11699     11701
     11700     11701     11702     11703     11702     11704     11703     11704
     11705     11706     11705     11707     11706     11707     11708     11709
     11708     11710     11709     11710     11711     11712     11711     11713
     11712     11713     11714     11715     11714     11716     11715     11716
     11717     11718     11717     11719     11718     11719     11720     11721
     11720     11722     11721     11722     11723     11724     11723     11725
     11724     11725     11726     11727     11726     11728     11727     11728
     11729     11730     11729     11731     11730     11731     11732     11733
     11732     11734     11733     11734     11735     11736     11735     11737
     11736     11737     11738     11739     11738     11740     11739     11740
     11741     11742     11741     11743     11742     11743     11744     11745
     11744     11746     11745     11746     11747     11748     11747     11749
     11748     11749     11750     11751     11750     11752     11751     11752
     11753     11754     11753     11755     11754     11755     11756     11757
     11756     11758     11757     11758     11759     11760     11759     11761
     11760     11761     11762     11763     11762     11764     11763     11764
     11765     11766     11765     11767     11766     11767     11768     11769
     11768     11770     11769     11770     11771     11772     11771     11773
     11772     11773     11774     11775     11774     11776     11775     11776
     11777     11778     11777     11779     11778     11779     11780     11781
     11780     11782     11781     11782     11783     11784     11783     11785
     11784     11785     11786     11787     11786     11788     11787     11788
     11789     11790     11789     11791     11790     11791     11792     11793
     11792     11794     11793     11794     11795     11796     11795     11797
     11796     11797     11798     11799     11798     11800     11799     11800
     11801     11802     11801     11803     11802     11803     11804     11805
     11804     11806     11805     11806     11807     11808     11807     11809
     11808     11809     11810     11811     11810     11812     11811     11812
     11813     11814     11813     11815     11814     11815     11816     11817
     11816     11818     11817     11818     11819     11820     11819     11821
     11820     11821     11822     11823     11822     11824     11823     11824
     11825     11826     11825     11827     11826     11827     11828     11829
     11828     11830     11829     11830     11831     11832     11831     11833
     11832     11833     11834     11835     11834     11836     11835     11836
     11837     11838     11837     11839     11838     11839     11840     11841
     11840     11842     11841     11842     11843     11844     11843     11845
     11844     11845     11846     11847     11846     11848     11847     11848
     11849     11850     11849     11851     11850     11851     11852     11853
     11852     11854     11853     11854     11855     11856     11855     11857
     11856     11857     11858     11859     11858     11860     11859     11860
     11861     11862     11861     11863     11862     11863     11864     11865
     11864     11866     11865     11866     11867     11868     11867     11869
     11868     11869     11870     11871     11870     11872     11871     11872
     11873     11874     11873     11875     11874     11875     11876     11877
     11876     11878     11877     11878     11879     11880     11879     11881
     11880     11881     11882     11883     11882     11884     11883     11884
     11885     11886     11885     11887     11886     11887     11888     11889
     11888     11890     11889     11890     11891     11892     11891     11893
     11892     11893     11894     11895     11894     11896     11895     11896
     11897     11898     11897     11899     11898     11899     11900     11901
     11900     11902     11901     11902     11903     11904     11903     11905
     11904     11905     11906     11907     11906     11908     11907     11908
     11909     11910     11909     11911     11910     11911     11912     11913
     11912     11914     11913     11914     11915     11916     11915     11917
     11916     11917     11918     11919     11918     11920     11919     11920
     11921     11922     11921     11923     11922     11923     11924     11925
     11924     11926     11925     11926     11927     11928     11927     11929
     11928     11929     11930     11931     11930     11932     11931     11932
     11933     11934     11933     11935     11934     11935     11936     11937
     11936     11938     11937     11938     11939     11940     11939     11941
     11940     11941     11942     11943     11942     11944     11943     11944
     11945     11946     11945     11947     11946     11947     11948     11949
     11948     11950     11949     11950     11951     11952     11951     11953
     11952     11953     11954     11955     11954     11956     11955     11956
     11957     11958     11957     11959     11958     11959     11960     11961
     11960     11962     11961     11962     11963     11964     11963     11965
     11964     11965     11966     11967     11966     11968     11967     11968
     11969     11970     11969     11971     11970     11971     11972     11973
     11972     11974     11973     11974     11975     11976     11975     11977
     11976     11977     11978     11979     11978     11980     11979     11980
     11981     11982     11981     11983     11982     11983     11984     11985
     11984     11986     11985     11986     11987     11988     11987     11989
     11988     11989     11990     11991     11990     11992     11991     11992
     11993     11994     11993     11995     11994     11995     11996     11997
     11996     11998     11997     11998     11999     12000     11999     12001
     12000     12001     12002     12003     12002     12004     12003     12004
     12005     12006     12005     12007     12006     12007     12008     12009
     12008     12010     12009     12010     12011     12012     12011     12013
     12012     12013     12014     12015     12014     12016     12015     12016
     12017     12018     12017     12019     12018     12019     12020     12021
     12020     12022     12021     12022     12023     12024     12023     12025
     12024     12025     12026     12027     12026     12028     12027     12028
     12029     12030     12029     12031     12030     12031     12032     12033
     12032     12034     12033     12034     12035     12036     12035     12037
     12036     12037     12038     12039     12038     12040     12039     12040
     12041     12042     12041     12043     12042     12043     12044     12045
     12044     12046     12045     12046     12047     12048     12047     12049
     12048     12049     12050     12051     12050     12052     12051     12052
     12053     12054     12053     12055     12054     12055     12056     12057
     12056     12058     12057     12058     12059     12060     12059     12061
     12060     12061     12062     12063     12062     12064     12063     12064
     12065     12066     12065     12067     12066     12067     12068     12069
     12068     12070     12069     12070     12071     12072     12071     12073
     12072     12073     12074     12075     12074     12076     12075     12076
     12077     12078     12077     12079     12078     12079     12080     12081
     12080     12082     12081     12082     12083     12084     12083     12085
     12084     12085     12086     12087     12086     12088     12087     12088
     12089     12090     12089     12091     12090     12091     12092     12093
     12092     12094     12093     12094     12095     12096     12095     12097
     12096     12097     12098     12099     12098     12100     12099     12100
     12101     12102     12101     12103     12102     12103     12104     12105
     12104     12106     12105     12106     12107     12108     12107     12109
     12108     12109     12110     12111     12110     12112     12111     12112
     12113     12114     12113     12115     12114     12115     12116     12117
     12116     12118     12117     12118     12119     12120     12119     12121
     12120     12121     12122     12123     12122     12124     12123     12124
     12125     12126     12125     12127     12126     12127     12128     12129
     12128     12130     12129     12130     12131     12132     12131     12133
     12132     12133     12134     12135     12134     12136     12135     12136
     12137     12138     12137     12139     12138     12139     12140     12141
     12140     12142     12141     12142     12143     12144     12143     12145
     12144     12145     12146     12147     12146     12148     12147     12148
     12149     12150     12149     12151     12150     12151     12152     12153
     12152     12154     12153     12154     12155     12156     12155     12157
     12156     12157     12158     12159     12158     12160     12159     12160
     12161     12162     12161     12163     12162     12163     12164     12165
     12164     12166     12165     12166     12167     12168     12167     12169
     12168     12169     12170     12171     12170     12172     12171     12172
     12173     12174     12173     12175     12174     12175     12176     12177
     12176     12178     12177     12178     12179     12180     12179     12181
     12180     12181     12182     12183     12182     12184     12183     12184
     12185     12186     12185     12187     12186     12187     12188     12189
     12188     12190     12189     12190     12191     12192     12191     12193
     12192     12193     12194     12195     12194     12196     12195     12196
     12197     12198     12197     12199     12198     12199     12200     12201
     12200     12202     12201     12202     12203     12204     12203     12205
     12204     12205     12206     12207     12206     12208     12207     12208
     12209     12210     12209     12211     12210     12211     12212     12213
     12212     12214     12213     12214     12215     12216     12215     12217
     12216     12217     12218     12219     12218     12220     12219     12220
     12221     12222     12221     12223     12222     12223     12224     12225
     12224     12226     12225     12226     12227     12228     12227     12229
     12228     12229     12230     12231     12230     12232     12231     12232
     12233     12234     12233     12235     12234     12235     12236     12237
     12236     12238     12237     12238     12239     12240     12239     12241
     12240     12241     12242     12243     12242     12244     12243     12244
     12245     12246     12245     12247     12246     12247     12248     12249
     12248     12250     12249     12250     12251     12252     12251     12253
     12252     12253     12254     12255     12254     12256     12255     12256
     12257     12258     12257     12259     12258     12259     12260     12261
     12260     12262     12261     12262     12263     12264     12263     12265
     12264     12265     12266     12267     12266     12268     12267     12268
     12269     12270     12269     12271     12270     12271     12272     12273
     12272     12274     12273     12274     12275     12276     12275     12277
     12276     12277     12278     12279     12278     12280     12279     12280
     12281     12282     12281     12283     12282     12283     12284     12285
     12284     12286     12285     12286     12287     12288     12287     12289
     12288     12289     12290     12291     12290     12292     12291     12292
     12293     12294     12293     12295     12294     12295     12296     12297
     12296     12298     12297     12298     12299     12300     12299     12301
     12300     12301     12302     12303     12302     12304     12303     12304
     12305     12306     12305     12307     12306     12307     12308     12309
     12308     12310     12309     12310     12311     12312     12311     12313
     12312     12313     12314     12315     12314     12316     12315     12316
     12317     12318     12317     12319     12318     12319     12320     12321
     12320     12322     12321     12322     12323     12324     12323     12325
     12324     12325     12326     12327     12326     12328     12327     12328
     12329     12330     12329     12331     12330     12331     12332     12333
     12332     12334     12333     12334     12335     12336     12335     12337
     12336     12337     12338     12339     12338     12340     12339     12340
     12341     12342     12341     12343     12342     12343     12344     12345
     12344     12346     12345     12346     12347     12348     12347     12349
     12348     12349     12350     12351     12350     12352     12351     12352
     12353     12354     12353     12355     12354     12355     12356     12357
     12356     12358     12357     12358     12359     12360     12359     12361
     12360     12361     12362     12363     12362     12364     12363     12364
     12365     12366     12365     12367     12366     12367     12368     12369
     12368     12370     12369     12370     12371     12372     12371     12373
     12372     12373     12374     12375     12374     12376     12375     12376
     12377     12378     12377     12379     12378     12379     12380     12381
     12380     12382     12381     12382     12383     12384     12383     12385
     12384     12385     12386     12387     12386     12388     12387     12388
     12389     12390     12389     12391     12390     12391     12392     12393
     12392     12394     12393     12394     12395     12396     12395     12397
     12396     12397     12398     12399     12398     12400     12399     12400
     12401     12402     12401     12403     12402     12403     12404     12405
     12404     12406     12405     12406     12407     12408     12407     12409
     12408     12409     12410     12411     12410     12412     12411     12412
     12413     12414     12413     12415     12414     12415     12416     12417
     12416     12418     12417     12418     12419     12420     12419     12421
     12420     12421     12422     12423     12422     12424     12423     12424
     12425     12426     12425     12427     12426     12427     12428     12429
     12428     12430     12429     12430     12431     12432     12431     12433
     12432     12433     12434     12435     12434     12436     12435     12436
     12437     12438     12437     12439     12438     12439     12440     12441
     12440     12442     12441     12442     12443     12444     12443     12445
     12444     12445     12446     12447     12446     12448     12447     12448
     12449     12450     12449     12451     12450     12451     12452     12453
     12452     12454     12453     12454     12455     12456     12455     12457
     12456     12457     12458     12459     12458     12460     12459     12460
     12461     12462     12461     12463     12462     12463     12464     12465
     12464     12466     12465     12466     12467     12468     12467     12469
     12468     12469     12470     12471     12470     12472     12471     12472
     12473     12474     12473     12475     12474     12475     12476     12477
     12476     12478     12477     12478     12479     12480     12479     12481
     12480     12481     12482     12483     12482     12484     12483     12484
     12485     12486     12485     12487     12486     12487     12488     12489
     12488     12490     12489     12490     12491     12492     12491     12493
     12492     12493     12494     12495     12494     12496     12495     12496
     12497     12498     12497     12499     12498     12499     12500     12501
     12500     12502     12501     12502     12503     12504     12503     12505
     12504     12505     12506     12507     12506     12508     12507     12508
     12509     12510     12509     12511     12510     12511     12512     12513
     12512     12514     12513     12514     12515     12516     12515     12517
     12516     12517     12518     12519     12518     12520     12519     12520
     12521     12522     12521     12523     12522     12523     12524     12525
     12524     12526     12525     12526     12527     12528     12527     12529
     12528     12529     12530     12531     12530     12532     12531     12532
     12533     12534     12533     12535     12534     12535     12536     12537
     12536     12538     12537     12538     12539     12540     12539     12541
     12540     12541     12542     12543     12542     12544     12543     12544
     12545     12546     12545     12547     12546     12547     12548     12549
     12548     12550     12549     12550     12551     12552     12551     12553
     12552     12553     12554     12555     12554     12556     12555     12556
     12557     12558     12557     12559     12558     12559     12560     12561
     12560     12562     12561     12562     12563     12564     12563     12565
     12564     12565     12566     12567     12566     12568     12567     12568
     12569     12570     12569     12571     12570     12571     12572     12573
     12572     12574     12573     12574     12575     12576     12575     12577
     12576     12577     12578     12579     12578     12580     12579     12580
     12581     12582     12581     12583     12582     12583     12584     12585
     12584     12586     12585     12586     12587     12588     12587     12589
     12588     12589     12590     12591     12590     12592     12591     12592
     12593     12594     12593     12595     12594     12595     12596     12597
     12596     12598     12597     12598     12599     12600     12599     12601
     12600     12601     12602     12603     12602     12604     12603     12604
     12605     12606     12605     12607     12606     12607     12608     12609
     12608     12610     12609     12610     12611     12612     12611     12613
     12612     12613     12614     12615     12614     12616     12615     12616
     12617     12618     12617     12619     12618     12619     12620     12621
     12620     12622     12621     12622     12623     12624     12623     12625
     12624     12625     12626     12627     12626     12628     12627     12628
     12629     12630     12629     12631     12630     12631     12632     12633
     12632     12634     12633     12634     12635     12636     12635     12637
     12636     12637     12638     12639     12638     12640     12639     12640
     12641     12642     12641     12643     12642     12643     12644     12645
     12644     12646     12645     12646     12647     12648     12647     12649
     12648     12649     12650     12651     12650     12652     12651     12652
     12653     12654     12653     12655     12654     12655     12656     12657
     12656     12658     12657     12658     12659     12660     12659     12661
     12660     12661     12662     12663     12662     12664     12663     12664
     12665     12666     12665     12667     12666     12667     12668     12669
     12668     12670     12669     12670     12671     12672     12671     12673
     12672     12673     12674     12675     12674     12676     12675     12676
     12677     12678     12677     12679     12678     12679     12680     12681
     12680     12682     12681     12682     12683     12684     12683     12685
     12684     12685     12686     12687     12686     12688     12687     12688
     12689     12690     12689     12691     12690     12691     12692     12693
     12692     12694     12693     12694     12695     12696     12695     12697
     12696     12697     12698     12699     12698     12700     12699     12700
     12701     12702     12701     12703     12702     12703     12704     12705
     12704     12706     12705     12706     12707     12708     12707     12709
     12708     12709     12710     12711     12710     12712     12711     12712
     12713     12714     12713     12715     12714     12715     12716     12717
     12716     12718     12717     12718     12719     12720     12719     12721
     12720     12721     12722     12723     12722     12724     12723     12724
     12725     12726     12725     12727     12726     12727     12728     12729
     12728     12730     12729     12730     12731     12732     12731     12733
     12732     12733     12734     12735     12734     12736     12735     12736
     12737     12738     12737     12739     12738     12739     12740     12741
     12740     12742     12741     12742     12743     12744     12743     12745
     12744     12745     12746     12747     12746     12748     12747     12748
     12749     12750     12749     12751     12750     12751     12752     12753
     12752     12754     12753     12754     12755     12756     12755     12757
     12756     12757     12758     12759     12758     12760     12759     12760
     12761     12762     12761     12763     12762     12763     12764     12765
     12764     12766     12765     12766     12767     12768     12767     12769
     12768     12769     12770     12771     12770     12772     12771     12772
     12773     12774     12773     12775     12774     12775     12776     12777
     12776     12778     12777     12778     12779     12780     12779     12781
     12780     12781     12782     12783     12782     12784     12783     12784
     12785     12786     12785     12787     12786     12787     12788     12789
     12788     12790     12789     12790     12791     12792     12791     12793
     12792     12793     12794     12795     12794     12796     12795     12796
     12797     12798     12797     12799     12798     12799     12800     12801
     12800     12802     12801     12802     12803     12804     12803     12805
     12804     12805     12806     12807     12806     12808     12807     12808
     12809     12810     12809     12811     12810     12811     12812     12813
     12812     12814     12813     12814     12815     12816     12815     12817
     12816     12817     12818     12819     12818     12820     12819     12820
     12821     12822     12821     12823     12822     12823     12824     12825
     12824     12826     12825     12826     12827     12828     12827     12829
     12828     12829     12830     12831     12830     12832     12831     12832
     12833     12834     12833     12835     12834     12835     12836     12837
     12836     12838     12837     12838     12839     12840     12839     12841
     12840     12841     12842     12843     12842     12844     12843     12844
     12845     12846     12845     12847     12846     12847     12848     12849
     12848     12850     12849     12850     12851     12852     12851     12853
     12852     12853     12854     12855     12854     12856     12855     12856
     12857     12858     12857     12859     12858     12859     12860     12861
     12860     12862     12861     12862     12863     12864     12863     12865
     12864     12865     12866     12867     12866     12868     12867     12868
     12869     12870     12869     12871     12870     12871     12872     12873
     12872     12874     12873     12874     12875     12876     12875     12877
     12876     12877     12878     12879     12878     12880     12879     12880
     12881     12882     12881     12883     12882     12883     12884     12885
     12884     12886     12885     12886     12887     12888     12887     12889
     12888     12889     12890     12891     12890     12892     12891     12892
     12893     12894     12893     12895     12894     12895     12896     12897
     12896     12898     12897     12898     12899     12900     12899     12901
     12900     12901     12902     12903     12902     12904     12903     12904
     12905     12906     12905     12907     12906     12907     12908     12909
     12908     12910     12909     12910     12911     12912     12911     12913
     12912     12913     12914     12915     12914     12916     12915     12916
     12917     12918     12917     12919     12918     12919     12920     12921
     12920     12922     12921     12922     12923     12924     12923     12925
     12924     12925     12926     12927     12926     12928     12927     12928
     12929     12930     12929     12931     12930     12931     12932     12933
     12932     12934     12933     12934     12935     12936     12935     12937
     12936     12937     12938     12939     12938     12940     12939     12940
     12941     12942     12941     12943     12942     12943     12944     12945
     12944     12946     12945     12946     12947     12948     12947     12949
     12948     12949     12950     12951     12950     12952     12951     12952
     12953     12954     12953     12955     12954     12955     12956     12957
     12956     12958     12957     12958     12959     12960     12959     12961
     12960     12961     12962     12963     12962     12964     12963     12964
     12965     12966     12965     12967     12966     12967     12968     12969
     12968     12970     12969     12970     12971     12972     12971     12973
     12972     12973     12974     12975     12974     12976     12975     12976
     12977     12978     12977     12979     12978     12979     12980     12981
     12980     12982     12981     12982     12983     12984     12983     12985
     12984     12985     12986     12987     12986     12988     12987     12988
     12989     12990     12989     12991     12990     12991     12992     12993
     12992     12994     12993     12994     12995     12996     12995     12997
     12996     12997     12998     12999     12998     13000     12999     13000
     13001     13002     13001     13003     13002     13003     13004     13005
     13004     13006     13005     13006     13007     13008     13007     13009
     13008     13009     13010     13011     13010     13012     13011     13012
     13013     13014     13013     13015     13014     13015     13016     13017
     13016     13018     13017     13018     13019     13020     13019     13021
     13020     13021     13022     13023     13022     13024     13023     13024
     13025     13026     13025     13027     13026     13027     13028     13029
     13028     13030     13029     13030     13031     13032     13031     13033
     13032     13033     13034     13035     13034     13036     13035     13036
     13037     13038     13037     13039     13038     13039     13040     13041
     13040     13042     13041     13042     13043     13044     13043     13045
     13044     13045     13046     13047     13046     13048     13047     13048
     13049     13050     13049     13051     13050     13051     13052     13053
     13052     13054     13053     13054     13055     13056     13055     13057
     13056     13057     13058     13059     13058     13060     13059     13060
     13061     13062     13061     13063     13062     13063     13064     13065
     13064     13066     13065     13066     13067     13068     13067     13069
     13068     13069     13070     13071     13070     13072     13071     13072
     13073     13074     13073     13075     13074     13075     13076     13077
     13076     13078     13077     13078     13079     13080     13079     13081
     13080     13081     13082     13083     13082     13084     13083     13084
     13085     13086     13085     13087     13086     13087     13088     13089
     13088     13090     13089     13090     13091     13092     13091     13093
     13092     13093     13094     13095     13094     13096     13095     13096
     13097     13098     13097     13099     13098     13099     13100     13101
     13100     13102     13101     13102     13103     13104     13103     13105
     13104     13105     13106     13107     13106     13108     13107     13108
     13109     13110     13109     13111     13110     13111     13112     13113
     13112     13114     13113     13114     13115     13116     13115     13117
     13116     13117     13118     13119     13118     13120     13119     13120
     13121     13122     13121     13123     13122     13123     13124     13125
     13124     13126     13125     13126     13127     13128     13127     13129
     13128     13129     13130     13131     13130     13132     13131     13132
     13133     13134     13133     13135     13134     13135     13136     13137
     13136     13138     13137     13138     13139     13140     13139     13141
     13140     13141     13142     13143     13142     13144     13143     13144
     13145     13146     13145     13147     13146     13147     13148     13149
     13148     13150     13149     13150     13151     13152     13151     13153
     13152     13153     13154     13155     13154     13156     13155     13156
     13157     13158     13157     13159     13158     13159     13160     13161
     13160     13162     13161     13162     13163     13164     13163     13165
     13164     13165     13166     13167     13166     13168     13167     13168
     13169     13170     13169     13171     13170     13171     13172     13173
     13172     13174     13173     13174     13175     13176     13175     13177
     13176     13177     13178     13179     13178     13180     13179     13180
     13181     13182     13181     13183     13182     13183     13184     13185
     13184     13186     13185     13186     13187     13188     13187     13189
     13188     13189     13190     13191     13190     13192     13191     13192
     13193     13194     13193     13195     13194     13195     13196     13197
     13196     13198     13197     13198     13199     13200     13199     13201
     13200     13201     13202     13203     13202     13204     13203     13204
     13205     13206     13205     13207     13206     13207     13208     13209
     13208     13210     13209     13210     13211     13212     13211     13213
     13212     13213     13214     13215     13214     13216     13215     13216
     13217     13218     13217     13219     13218     13219     13220     13221
     13220     13222     13221     13222     13223     13224     13223     13225
     13224     13225     13226     13227     13226     13228     13227     13228
     13229     13230     13229     13231     13230     13231     13232     13233
     13232     13234     13233     13234     13235     13236     13235     13237
     13236     13237     13238     13239     13238     13240     13239     13240
     13241     13242     13241     13243     13242     13243     13244     13245
     13244     13246     13245     13246     13247     13248     13247     13249
     13248     13249     13250     13251     13250     13252     13251     13252
     13253     13254     13253     13255     13254     13255     13256     13257
     13256     13258     13257     13258     13259     13260     13259     13261
     13260     13261     13262     13263     13262     13264     13263     13264
     13265     13266     13265     13267     13266     13267     13268     13269
     13268     13270     13269     13270     13271     13272     13271     13273
     13272     13273     13274     13275     13274     13276     13275     13276
     13277     13278     13277     13279     13278     13279     13280     13281
     13280     13282     13281     13282     13283     13284     13283     13285
     13284     13285     13286     13287     13286     13288     13287     13288
     13289     13290     13289     13291     13290     13291     13292     13293
     13292     13294     13293     13294     13295     13296     13295     13297
     13296     13297     13298     13299     13298     13300     13299     13300
     13301     13302     13301     13303     13302     13303     13304     13305
     13304     13306     13305     13306     13307     13308     13307     13309
     13308     13309     13310     13311     13310     13312     13311     13312
     13313     13314     13313     13315     13314     13315     13316     13317
     13316     13318     13317     13318     13319     13320     13319     13321
     13320     13321     13322     13323     13322     13324     13323     13324
     13325     13326     13325     13327     13326     13327     13328     13329
     13328     13330     13329     13330     13331     13332     13331     13333
     13332     13333     13334     13335     13334     13336     13335     13336
     13337     13338     13337     13339     13338     13339     13340     13341
     13340     13342     13341     13342     13343     13344     13343     13345
     13344     13345     13346     13347     13346     13348     13347     13348
     13349     13350     13349     13351     13350     13351     13352     13353
     13352     13354     13353     13354     13355     13356     13355     13357
     13356     13357     13358     13359     13358     13360     13359     13360
     13361     13362     13361     13363     13362     13363     13364     13365
     13364     13366     13365     13366     13367     13368     13367     13369
     13368     13369     13370     13371     13370     13372     13371     13372
     13373     13374     13373     13375     13374     13375     13376     13377
     13376     13378     13377     13378     13379     13380     13379     13381
     13380     13381     13382     13383     13382     13384     13383     13384
     13385     13386     13385     13387     13386     13387     13388     13389
     13388     13390     13389     13390     13391     13392     13391     13393
     13392     13393     13394     13395     13394     13396     13395     13396
     13397     13398     13397     13399     13398     13399     13400     13401
     13400     13402     13401     13402     13403     13404     13403     13405
     13404     13405     13406     13407     13406     13408     13407     13408
     13409     13410     13409     13411     13410     13411     13412     13413
     13412     13414     13413     13414     13415     13416     13415     13417
     13416     13417     13418     13419     13418     13420     13419     13420
     13421     13422     13421     13423     13422     13423     13424     13425
     13424     13426     13425     13426     13427     13428     13427     13429
     13428     13429     13430     13431     13430     13432     13431     13432
     13433     13434     13433     13435     13434     13435     13436     13437
     13436     13438     13437     13438     13439     13440     13439     13441
     13440     13441     13442     13443     13442     13444     13443     13444
     13445     13446     13445     13447     13446     13447     13448     13449
     13448     13450     13449     13450     13451     13452     13451     13453
     13452     13453     13454     13455     13454     13456     13455     13456
     13457     13458     13457     13459     13458     13459     13460     13461
     13460     13462     13461     13462     13463     13464     13463     13465
     13464     13465     13466     13467     13466     13468     13467     13468
     13469     13470     13469     13471     13470     13471     13472     13473
     13472     13474     13473     13474     13475     13476     13475     13477
     13476     13477     13478     13479     13478     13480     13479     13480
     13481     13482     13481     13483     13482     13483     13484     13485
     13484     13486     13485     13486     13487     13488     13487     13489
     13488     13489     13490     13491     13490     13492     13491     13492
     13493     13494     13493     13495     13494     13495     13496     13497
     13496     13498     13497     13498     13499     13500     13499     13501
     13500     13501     13502     13503     13502     13504     13503     13504
     13505     13506     13505     13507     13506     13507     13508     13509
     13508     13510     13509     13510     13511     13512     13511     13513
     13512     13513     13514     13515     13514     13516     13515     13516
     13517     13518     13517     13519     13518     13519     13520     13521
     13520     13522     13521     13522     13523     13524     13523     13525
     13524     13525     13526     13527     13526     13528     13527     13528
     13529     13530     13529     13531     13530     13531     13532     13533
     13532     13534     13533     13534     13535     13536     13535     13537
     13536     13537     13538     13539     13538     13540     13539     13540
     13541     13542     13541     13543     13542     13543     13544     13545
     13544     13546     13545     13546     13547     13548     13547     13549
     13548     13549     13550     13551     13550     13552     13551     13552
     13553     13554     13553     13555     13554     13555     13556     13557
     13556     13558     13557     13558     13559     13560     13559     13561
     13560     13561     13562     13563     13562     13564     13563     13564
     13565     13566     13565     13567     13566     13567     13568     13569
     13568     13570     13569     13570     13571     13572     13571     13573
     13572     13573     13574     13575     13574     13576     13575     13576
     13577     13578     13577     13579     13578     13579     13580     13581
     13580     13582     13581     13582     13583     13584     13583     13585
     13584     13585     13586     13587     13586     13588     13587     13588
     13589     13590     13589     13591     13590     13591     13592     13593
     13592     13594     13593     13594     13595     13596     13595     13597
     13596     13597     13598     13599     13598     13600     13599     13600
     13601     13602     13601     13603     13602     13603     13604     13605
     13604     13606     13605     13606     13607     13608     13607     13609
     13608     13609     13610     13611     13610     13612     13611     13612
     13613     13614     13613     13615     13614     13615     13616     13617
     13616     13618     13617     13618     13619     13620     13619     13621
     13620     13621     13622     13623     13622     13624     13623     13624
     13625     13626     13625     13627     13626     13627     13628     13629
     13628     13630     13629     13630     13631     13632     13631     13633
     13632     13633     13634     13635     13634     13636     13635     13636
     13637     13638     13637     13639     13638     13639     13640     13641
     13640     13642     13641     13642     13643     13644     13643     13645
     13644     13645     13646     13647     13646     13648     13647     13648
     13649     13650     13649     13651     13650     13651     13652     13653
     13652     13654     13653     13654     13655     13656     13655     13657
     13656     13657     13658     13659     13658     13660     13659     13660
     13661     13662     13661     13663     13662     13663     13664     13665
     13664     13666     13665     13666     13667     13668     13667     13669
     13668     13669     13670     13671     13670     13672     13671     13672
     13673     13674     13673     13675     13674     13675     13676     13677
     13676     13678     13677     13678     13679     13680     13679     13681
     13680     13681     13682     13683     13682     13684     13683     13684
     13685     13686     13685     13687     13686     13687     13688     13689
     13688     13690     13689     13690     13691     13692     13691     13693
     13692     13693     13694     13695     13694     13696     13695     13696
     13697     13698     13697     13699     13698     13699     13700     13701
     13700     13702     13701     13702     13703     13704     13703     13705
     13704     13705     13706     13707     13706     13708     13707     13708
     13709     13710     13709     13711     13710     13711     13712     13713
     13712     13714     13713     13714     13715     13716     13715     13717
     13716     13717     13718     13719     13718     13720     13719     13720
     13721     13722     13721     13723     13722     13723     13724     13725
     13724     13726     13725     13726     13727     13728     13727     13729
     13728     13729     13730     13731     13730     13732     13731     13732
     13733     13734     13733     13735     13734     13735     13736     13737
     13736     13738     13737     13738     13739     13740     13739     13741
     13740     13741     13742     13743     13742     13744     13743     13744
     13745     13746     13745     13747     13746     13747     13748     13749
     13748     13750     13749     13750     13751     13752     13751     13753
     13752     13753     13754     13755     13754     13756     13755     13756
     13757     13758     13757     13759     13758     13759     13760     13761
     13760     13762     13761     13762     13763     13764     13763     13765
     13764     13765     13766     13767     13766     13768     13767     13768
     13769     13770     13769     13771     13770     13771     13772     13773
     13772     13774     13773     13774     13775     13776     13775     13777
     13776     13777     13778     13779     13778     13780     13779     13780
     13781     13782     13781     13783     13782     13783     13784     13785
     13784     13786     13785     13786     13787     13788     13787     13789
     13788     13789     13790     13791     13790     13792     13791     13792
     13793     13794     13793     13795     13794     13795     13796     13797
     13796     13798     13797     13798     13799     13800     13799     13801
     13800     13801     13802     13803     13802     13804     13803     13804
     13805     13806     13805     13807     13806     13807     13808     13809
     13808     13810     13809     13810     13811     13812     13811     13813
     13812     13813     13814     13815     13814     13816     13815     13816
     13817     13818     13817     13819     13818     13819     13820     13821
     13820     13822     13821     13822     13823     13824     13823     13825
     13824     13825     13826     13827     13826     13828     13827     13828
     13829     13830     13829     13831     13830     13831     13832     13833
     13832     13834     13833     13834     13835     13836     13835     13837
     13836     13837     13838     13839     13838     13840     13839     13840
     13841     13842     13841     13843     13842     13843     13844     13845
     13844     13846     13845     13846     13847     13848     13847     13849
     13848     13849     13850     13851     13850     13852     13851     13852
     13853     13854     13853     13855     13854     13855     13856     13857
     13856     13858     13857     13858     13859     13860     13859     13861
     13860     13861     13862     13863     13862     13864     13863     13864
     13865     13866     13865     13867     13866     13867     13868     13869
     13868     13870     13869     13870     13871     13872     13871     13873
     13872     13873     13874     13875     13874     13876     13875     13876
     13877     13878     13877     13879     13878     13879     13880     13881
     13880     13882     13881     13882     13883     13884     13883     13885
     13884     13885     13886     13887     13886     13888     13887     13888
     13889     13890     13889     13891     13890     13891     13892     13893
     13892     13894     13893     13894     13895     13896     13895     13897
     13896     13897     13898     13899     13898     13900     13899     13900
     13901     13902     13901     13903     13902     13903     13904     13905
     13904     13906     13905     13906     13907     13908     13907     13909
     13908     13909     13910     13911     13910     13912     13911     13912
     13913     13914     13913     13915     13914     13915     13916     13917
     13916     13918     13917     13918     13919     13920     13919     13921
     13920     13921     13922     13923     13922     13924     13923     13924
     13925     13926     13925     13927     13926     13927     13928     13929
     13928     13930     13929     13930     13931     13932     13931     13933
     13932     13933     13934     13935     13934     13936     13935     13936
     13937     13938     13937     13939     13938     13939     13940     13941
     13940     13942     13941     13942     13943     13944     13943     13945
     13944     13945     13946     13947     13946     13948     13947     13948
     13949     13950     13949     13951     13950     13951     13952     13953
     13952     13954     13953     13954     13955     13956     13955     13957
     13956     13957     13958     13959     13958     13960     13959     13960
     13961     13962     13961     13963     13962     13963     13964     13965
     13964     13966     13965     13966     13967     13968     13967     13969
     13968     13969     13970     13971     13970     13972     13971     13972
     13973     13974     13973     13975     13974     13975     13976     13977
     13976     13978     13977     13978     13979     13980     13979     13981
     13980     13981     13982     13983     13982     13984     13983     13984
     13985     13986     13985     13987     13986     13987     13988     13989
     13988     13990     13989     13990     13991     13992     13991     13993
     13992     13993     13994     13995     13994     13996     13995     13996
     13997     13998     13997     13999     13998     13999     14000     14001
     14000     14002     14001     14002     14003     14004     14003     14005
     14004     14005     14006     14007     14006     14008     14007     14008
     14009     14010     14009     14011     14010     14011     14012     14013
     14012     14014     14013     14014     14015     14016     14015     14017
     14016     14017     14018     14019     14018     14020     14019     14020
     14021     14022     14021     14023     14022     14023     14024     14025
     14024     14026     14025     14026     14027     14028     14027     14029
     14028     14029     14030     14031     14030     14032     14031     14032
     14033     14034     14033     14035     14034     14035     14036     14037
     14036     14038     14037     14038     14039     14040     14039     14041
     14040     14041     14042     14043     14042     14044     14043     14044
     14045     14046     14045     14047     14046     14047     14048     14049
     14048     14050     14049     14050     14051     14052     14051     14053
     14052     14053     14054     14055     14054     14056     14055     14056
     14057     14058     14057     14059     14058     14059     14060     14061
     14060     14062     14061     14062     14063     14064     14063     14065
     14064     14065     14066     14067     14066     14068     14067     14068
     14069     14070     14069     14071     14070     14071     14072     14073
     14072     14074     14073     14074     14075     14076     14075     14077
     14076     14077     14078     14079     14078     14080     14079     14080
     14081     14082     14081     14083     14082     14083     14084     14085
     14084     14086     14085     14086     14087     14088     14087     14089
     14088     14089     14090     14091     14090     14092     14091     14092
     14093     14094     14093     14095     14094     14095     14096     14097
     14096     14098     14097     14098     14099     14100     14099     14101
     14100     14101     14102     14103     14102     14104     14103     14104
     14105     14106     14105     14107     14106     14107     14108     14109
     14108     14110     14109     14110     14111     14112     14111     14113
     14112     14113     14114     14115     14114     14116     14115     14116
     14117     14118     14117     14119     14118     14119     14120     14121
     14120     14122     14121     14122     14123     14124     14123     14125
     14124     14125     14126     14127     14126     14128     14127     14128
     14129     14130     14129     14131     14130     14131     14132     14133
     14132     14134     14133     14134     14135     14136     14135     14137
     14136     14137     14138     14139     14138     14140     14139     14140
     14141     14142     14141     14143     14142     14143     14144     14145
     14144     14146     14145     14146     14147     14148     14147     14149
     14148     14149     14150     14151     14150     14152     14151     14152
     14153     14154     14153     14155     14154     14155     14156     14157
     14156     14158     14157     14158     14159     14160     14159     14161
     14160     14161     14162     14163     14162     14164     14163     14164
     14165     14166     14165     14167     14166     14167     14168     14169
     14168     14170     14169     14170     14171     14172     14171     14173
     14172     14173     14174     14175     14174     14176     14175     14176
     14177     14178     14177     14179     14178     14179     14180     14181
     14180     14182     14181     14182     14183     14184     14183     14185
     14184     14185     14186     14187     14186     14188     14187     14188
     14189     14190     14189     14191     14190     14191     14192     14193
     14192     14194     14193     14194     14195     14196     14195     14197
     14196     14197     14198     14199     14198     14200     14199     14200
     14201     14202     14201     14203     14202     14203     14204     14205
     14204     14206     14205     14206     14207     14208     14207     14209
     14208     14209     14210     14211     14210     14212     14211     14212
     14213     14214     14213     14215     14214     14215     14216     14217
     14216     14218     14217     14218     14219     14220     14219     14221
     14220     14221     14222     14223     14222     14224     14223     14224
     14225     14226     14225     14227     14226     14227     14228     14229
     14228     14230     14229     14230     14231     14232     14231     14233
     14232     14233     14234     14235     14234     14236     14235     14236
     14237     14238     14237     14239     14238     14239     14240     14241
     14240     14242     14241     14242     14243     14244     14243     14245
     14244     14245     14246     14247     14246     14248     14247     14248
     14249     14250     14249     14251     14250     14251     14252     14253
     14252     14254     14253     14254     14255     14256     14255     14257
     14256     14257     14258     14259     14258     14260     14259     14260
     14261     14262     14261     14263     14262     14263     14264     14265
     14264     14266     14265     14266     14267     14268     14267     14269
     14268     14269     14270     14271     14270     14272     14271     14272
     14273     14274     14273     14275     14274     14275     14276     14277
     14276     14278     14277     14278     14279     14280     14279     14281
     14280     14281     14282     14283     14282     14284     14283     14284
     14285     14286     14285     14287     14286     14287     14288     14289
     14288     14290     14289     14290     14291     14292     14291     14293
     14292     14293     14294     14295     14294     14296     14295     14296
     14297     14298     14297     14299     14298     14299     14300     14301
     14300     14302     14301     14302     14303     14304     14303     14305
     14304     14305     14306     14307     14306     14308     14307     14308
     14309     14310     14309     14311     14310     14311     14312     14313
     14312     14314     14313     14314     14315     14316     14315     14317
     14316     14317     14318     14319     14318     14320     14319     14320
     14321     14322     14321     14323     14322     14323     14324     14325
     14324     14326     14325     14326     14327     14328     14327     14329
     14328     14329     14330     14331     14330     14332     14331     14332
     14333     14334     14333     14335     14334     14335     14336     14337
     14336     14338     14337     14338     14339     14340     14339     14341
     14340     14341     14342     14343     14342     14344     14343     14344
     14345     14346     14345     14347     14346     14347     14348     14349
     14348     14350     14349     14350     14351     14352     14351     14353
     14352     14353     14354     14355     14354     14356     14355     14356
     14357     14358     14357     14359     14358     14359     14360     14361
     14360     14362     14361     14362     14363     14364     14363     14365
     14364     14365     14366     14367     14366     14368     14367     14368
     14369     14370     14369     14371     14370     14371     14372     14373
     14372     14374     14373     14374     14375     14376     14375     14377
     14376     14377     14378     14379     14378     14380     14379     14380
     14381     14382     14381     14383     14382     14383     14384     14385
     14384     14386     14385     14386     14387     14388     14387     14389
     14388     14389     14390     14391     14390     14392     14391     14392
     14393     14394     14393     14395     14394     14395     14396     14397
     14396     14398     14397     14398     14399     14400     14399     14401
     14400     14401     14402     14403     14402     14404     14403     14404
     14405     14406     14405     14407     14406     14407     14408     14409
     14408     14410     14409     14410     14411     14412     14411     14413
     14412     14413     14414     14415     14414     14416     14415     14416
     14417     14418     14417     14419     14418     14419     14420     14421
     14420     14422     14421     14422     14423     14424     14423     14425
     14424     14425     14426     14427     14426     14428     14427     14428
     14429     14430     14429     14431     14430     14431     14432     14433
     14432     14434     14433     14434     14435     14436     14435     14437
     14436     14437     14438     14439     14438     14440     14439     14440
     14441     14442     14441     14443     14442     14443     14444     14445
     14444     14446     14445     14446     14447     14448     14447     14449
     14448     14449     14450     14451     14450     14452     14451     14452
     14453     14454     14453     14455     14454     14455     14456     14457
     14456     14458     14457     14458     14459     14460     14459     14461
     14460     14461     14462     14463     14462     14464     14463     14464
     14465     14466     14465     14467     14466     14467     14468     14469
     14468     14470     14469     14470     14471     14472     14471     14473
     14472     14473     14474     14475     14474     14476     14475     14476
     14477     14478     14477     14479     14478     14479     14480     14481
     14480     14482     14481     14482     14483     14484     14483     14485
     14484     14485     14486     14487     14486     14488     14487     14488
     14489     14490     14489     14491     14490     14491     14492     14493
     14492     14494     14493     14494     14495     14496     14495     14497
     14496     14497     14498     14499     14498     14500     14499     14500
     14501     14502     14501     14503     14502     14503     14504     14505
     14504     14506     14505     14506     14507     14508     14507     14509
     14508     14509     14510     14511     14510     14512     14511     14512
     14513     14514     14513     14515     14514     14515     14516     14517
     14516     14518     14517     14518     14519     14520     14519     14521
     14520     14521     14522     14523     14522     14524     14523     14524
     14525     14526     14525     14527     14526     14527     14528     14529
     14528     14530     14529     14530     14531     14532     14531     14533
     14532     14533     14534     14535     14534     14536     14535     14536
     14537     14538     14537     14539     14538     14539     14540     14541
     14540     14542     14541     14542     14543     14544     14543     14545
     14544     14545     14546     14547     14546     14548     14547     14548
     14549     14550     14549     14551     14550     14551     14552     14553
     14552     14554     14553     14554     14555     14556     14555     14557
     14556     14557     14558     14559     14558     14560     14559     14560
     14561     14562     14561     14563     14562     14563     14564     14565
     14564     14566     14565     14566     14567     14568     14567     14569
     14568     14569     14570     14571     14570     14572     14571     14572
     14573     14574     14573     14575     14574     14575     14576     14577
     14576     14578     14577     14578     14579     14580     14579     14581
     14580     14581     14582     14583     14582     14584     14583     14584
     14585     14586     14585     14587     14586     14587     14588     14589
     14588     14590     14589     14590     14591     14592     14591     14593
     14592     14593     14594     14595     14594     14596     14595     14596
     14597     14598     14597     14599     14598     14599     14600     14601
     14600     14602     14601     14602     14603     14604     14603     14605
     14604     14605     14606     14607     14606     14608     14607     14608
     14609     14610     14609     14611     14610     14611     14612     14613
     14612     14614     14613     14614     14615     14616     14615     14617
     14616     14617     14618     14619     14618     14620     14619     14620
     14621     14622     14621     14623     14622     14623     14624     14625
     14624     14626     14625     14626     14627     14628     14627     14629
     14628     14629     14630     14631     14630     14632     14631     14632
     14633     14634     14633     14635     14634     14635     14636     14637
     14636     14638     14637     14638     14639     14640     14639     14641
     14640     14641     14642     14643     14642     14644     14643     14644
     14645     14646     14645     14647     14646     14647     14648     14649
     14648     14650     14649     14650     14651     14652     14651     14653
     14652     14653     14654     14655     14654     14656     14655     14656
     14657     14658     14657     14659     14658     14659     14660     14661
     14660     14662     14661     14662     14663     14664     14663     14665
     14664     14665     14666     14667     14666     14668     14667     14668
     14669     14670     14669     14671     14670     14671     14672     14673
     14672     14674     14673     14674     14675     14676     14675     14677
     14676     14677     14678     14679     14678     14680     14679     14680
     14681     14682     14681     14683     14682     14683     14684     14685
     14684     14686     14685     14686     14687     14688     14687     14689
     14688     14689     14690     14691     14690     14692     14691     14692
     14693     14694     14693     14695     14694     14695     14696     14697
     14696     14698     14697     14698     14699     14700     14699     14701
     14700     14701     14702     14703     14702     14704     14703     14704
     14705     14706     14705     14707     14706     14707     14708     14709
     14708     14710     14709     14710     14711     14712     14711     14713
     14712     14713     14714     14715     14714     14716     14715     14716
     14717     14718     14717     14719     14718     14719     14720     14721
     14720     14722     14721     14722     14723     14724     14723     14725
     14724     14725     14726     14727     14726     14728     14727     14728
     14729     14730     14729     14731     14730     14731     14732     14733
     14732     14734     14733     14734     14735     14736     14735     14737
     14736     14737     14738     14739     14738     14740     14739     14740
     14741     14742     14741     14743     14742     14743     14744     14745
     14744     14746     14745     14746     14747     14748     14747     14749
     14748     14749     14750     14751     14750     14752     14751     14752
     14753     14754     14753     14755     14754     14755     14756     14757
     14756     14758     14757     14758     14759     14760     14759     14761
     14760     14761     14762     14763     14762     14764     14763     14764
     14765     14766     14765     14767     14766     14767     14768     14769
     14768     14770     14769     14770     14771     14772     14771     14773
     14772     14773     14774     14775     14774     14776     14775     14776
     14777     14778     14777     14779     14778     14779     14780     14781
     14780     14782     14781     14782     14783     14784     14783     14785
     14784     14785     14786     14787     14786     14788     14787     14788
     14789     14790     14789     14791     14790     14791     14792     14793
     14792     14794     14793     14794     14795     14796     14795     14797
     14796     14797     14798     14799     14798     14800     14799     14800
     14801     14802     14801     14803     14802     14803     14804     14805
     14804     14806     14805     14806     14807     14808     14807     14809
     14808     14809     14810     14811     14810     14812     14811     14812
     14813     14814     14813     14815     14814     14815     14816     14817
     14816     14818     14817     14818     14819     14820     14819     14821
     14820     14821     14822     14823     14822     14824     14823     14824
     14825     14826     14825     14827     14826     14827     14828     14829
     14828     14830     14829     14830     14831     14832     14831     14833
     14832     14833     14834     14835     14834     14836     14835     14836
     14837     14838     14837     14839     14838     14839     14840     14841
     14840     14842     14841     14842     14843     14844     14843     14845
     14844     14845     14846     14847     14846     14848     14847     14848
     14849     14850     14849     14851     14850     14851     14852     14853
     14852     14854     14853     14854     14855     14856     14855     14857
     14856     14857     14858     14859     14858     14860     14859     14860
     14861     14862     14861     14863     14862     14863     14864     14865
     14864     14866     14865     14866     14867     14868     14867     14869
     14868     14869     14870     14871     14870     14872     14871     14872
     14873     14874     14873     14875     14874     14875     14876     14877
     14876     14878     14877     14878     14879     14880     14879     14881
     14880     14881     14882     14883     14882     14884     14883     14884
     14885     14886     14885     14887     14886     14887     14888     14889
     14888     14890     14889     14890     14891     14892     14891     14893
     14892     14893     14894     14895     14894     14896     14895     14896
     14897     14898     14897     14899     14898     14899     14900     14901
     14900     14902     14901     14902     14903     14904     14903     14905
     14904     14905     14906     14907     14906     14908     14907     14908
     14909     14910     14909     14911     14910     14911     14912     14913
     14912     14914     14913     14914     14915     14916     14915     14917
     14916     14917     14918     14919     14918     14920     14919     14920
     14921     14922     14921     14923     14922     14923     14924     14925
     14924     14926     14925     14926     14927     14928     14927     14929
     14928     14929     14930     14931     14930     14932     14931     14932
     14933     14934     14933     14935     14934     14935     14936     14937
     14936     14938     14937     14938     14939     14940     14939     14941
     14940     14941     14942     14943     14942     14944     14943     14944
     14945     14946     14945     14947     14946     14947     14948     14949
     14948     14950     14949     14950     14951     14952     14951     14953
     14952     14953     14954     14955     14954     14956     14955     14956
     14957     14958     14957     14959     14958     14959     14960     14961
     14960     14962     14961     14962     14963     14964     14963     14965
     14964     14965     14966     14967     14966     14968     14967     14968
     14969     14970     14969     14971     14970     14971     14972     14973
     14972     14974     14973     14974     14975     14976     14975     14977
     14976     14977     14978     14979     14978     14980     14979     14980
     14981     14982     14981     14983     14982     14983     14984     14985
     14984     14986     14985     14986     14987     14988     14987     14989
     14988     14989     14990     14991     14990     14992     14991     14992
     14993     14994     14993     14995     14994     14995     14996     14997
     14996     14998     14997     14998     14999     15000     14999     15001
     15000     15001     15002     15003     15002     15004     15003     15004
     15005     15006     15005     15007     15006     15007     15008     15009
     15008     15010     15009     15010     15011     15012     15011     15013
     15012     15013     15014     15015     15014     15016     15015     15016
     15017     15018     15017     15019     15018     15019     15020     15021
     15020     15022     15021     15022     15023     15024     15023     15025
     15024     15025     15026     15027     15026     15028     15027     15028
     15029     15030     15029     15031     15030     15031     15032     15033
     15032     15034     15033     15034     15035     15036     15035     15037
     15036     15037     15038     15039     15038     15040     15039     15040
     15041     15042     15041     15043     15042     15043     15044     15045
     15044     15046     15045     15046     15047     15048     15047     15049
     15048     15049     15050     15051     15050     15052     15051     15052
     15053     15054     15053     15055     15054     15055     15056     15057
     15056     15058     15057     15058     15059     15060     15059     15061
     15060     15061     15062     15063     15062     15064     15063     15064
     15065     15066     15065     15067     15066     15067     15068     15069
     15068     15070     15069     15070     15071     15072     15071     15073
     15072     15073     15074     15075     15074     15076     15075     15076
     15077     15078     15077     15079     15078     15079     15080     15081
     15080     15082     15081     15082     15083     15084     15083     15085
     15084     15085     15086     15087     15086     15088     15087     15088
     15089     15090     15089     15091     15090     15091     15092     15093
     15092     15094     15093     15094     15095     15096     15095     15097
     15096     15097     15098     15099     15098     15100     15099     15100
     15101     15102     15101     15103     15102     15103     15104     15105
     15104     15106     15105     15106     15107     15108     15107     15109
     15108     15109     15110     15111     15110     15112     15111     15112
     15113     15114     15113     15115     15114     15115     15116     15117
     15116     15118     15117     15118     15119     15120     15119     15121
     15120     15121     15122     15123     15122     15124     15123     15124
     15125     15126     15125     15127     15126     15127     15128     15129
     15128     15130     15129     15130     15131     15132     15131     15133
     15132     15133     15134     15135     15134     15136     15135     15136
     15137     15138     15137     15139     15138     15139     15140     15141
     15140     15142     15141     15142     15143     15144     15143     15145
     15144     15145     15146     15147     15146     15148     15147     15148
     15149     15150     15149     15151     15150     15151     15152     15153
     15152     15154     15153     15154     15155     15156     15155     15157
     15156     15157     15158     15159     15158     15160     15159     15160
     15161     15162     15161     15163     15162     15163     15164     15165
     15164     15166     15165     15166     15167     15168     15167     15169
     15168     15169     15170     15171     15170     15172     15171     15172
     15173     15174     15173     15175     15174     15175     15176     15177
     15176     15178     15177     15178     15179     15180     15179     15181
     15180     15181     15182     15183     15182     15184     15183     15184
     15185     15186     15185     15187     15186     15187     15188     15189
     15188     15190     15189     15190     15191     15192     15191     15193
     15192     15193     15194     15195     15194     15196     15195     15196
     15197     15198     15197     15199     15198     15199     15200     15201
     15200     15202     15201     15202     15203     15204     15203     15205
     15204     15205     15206     15207     15206     15208     15207     15208
     15209     15210     15209     15211     15210     15211     15212     15213
     15212     15214     15213     15214     15215     15216     15215     15217
     15216     15217     15218     15219     15218     15220     15219     15220
     15221     15222     15221     15223     15222     15223     15224     15225
     15224     15226     15225     15226     15227     15228     15227     15229
     15228     15229     15230     15231     15230     15232     15231     15232
     15233     15234     15233     15235     15234     15235     15236     15237
     15236     15238     15237     15238     15239     15240     15239     15241
     15240     15241     15242     15243     15242     15244     15243     15244
     15245     15246     15245     15247     15246     15247     15248     15249
     15248     15250     15249     15250     15251     15252     15251     15253
     15252     15253     15254     15255     15254     15256     15255     15256
     15257     15258     15257     15259     15258     15259     15260     15261
     15260     15262     15261     15262     15263     15264     15263     15265
     15264     15265     15266     15267     15266     15268     15267     15268
     15269     15270     15269     15271     15270     15271     15272     15273
     15272     15274     15273     15274     15275     15276     15275     15277
     15276     15277     15278     15279     15278     15280     15279     15280
     15281     15282     15281     15283     15282     15283     15284     15285
     15284     15286     15285     15286     15287     15288     15287     15289
     15288     15289     15290     15291     15290     15292     15291     15292
     15293     15294     15293     15295     15294     15295     15296     15297
     15296     15298     15297     15298     15299     15300     15299     15301
     15300     15301     15302     15303     15302     15304     15303     15304
     15305     15306     15305     15307     15306     15307     15308     15309
     15308     15310     15309     15310     15311     15312     15311     15313
     15312     15313     15314     15315     15314     15316     15315     15316
     15317     15318     15317     15319     15318     15319     15320     15321
     15320     15322     15321     15322     15323     15324     15323     15325
     15324     15325     15326     15327     15326     15328     15327     15328
     15329     15330     15329     15331     15330     15331     15332     15333
     15332     15334     15333     15334     15335     15336     15335     15337
     15336     15337     15338     15339     15338     15340     15339     15340
     15341     15342     15341     15343     15342     15343     15344     15345
     15344     15346     15345     15346     15347     15348     15347     15349
     15348     15349     15350     15351     15350     15352     15351     15352
     15353     15354     15353     15355     15354     15355     15356     15357
     15356     15358     15357     15358     15359     15360     15359     15361
     15360     15361     15362     15363     15362     15364     15363     15364
     15365     15366     15365     15367     15366     15367     15368     15369
     15368     15370     15369     15370     15371     15372     15371     15373
     15372     15373     15374     15375     15374     15376     15375     15376
     15377     15378     15377     15379     15378     15379     15380     15381
     15380     15382     15381     15382     15383     15384     15383     15385
     15384     15385     15386     15387     15386     15388     15387     15388
     15389     15390     15389     15391     15390     15391     15392     15393
     15392     15394     15393     15394     15395     15396     15395     15397
     15396     15397     15398     15399     15398     15400     15399     15400
     15401     15402     15401     15403     15402     15403     15404     15405
     15404     15406     15405     15406     15407     15408     15407     15409
     15408     15409     15410     15411     15410     15412     15411     15412
     15413     15414     15413     15415     15414     15415     15416     15417
     15416     15418     15417     15418     15419     15420     15419     15421
     15420     15421     15422     15423     15422     15424     15423     15424
     15425     15426     15425     15427     15426     15427     15428     15429
     15428     15430     15429     15430     15431     15432     15431     15433
     15432     15433     15434     15435     15434     15436     15435     15436
     15437     15438     15437     15439     15438     15439     15440     15441
     15440     15442     15441     15442     15443     15444     15443     15445
     15444     15445     15446     15447     15446     15448     15447     15448
     15449     15450     15449     15451     15450     15451     15452     15453
     15452     15454     15453     15454     15455     15456     15455     15457
     15456     15457     15458     15459     15458     15460     15459     15460
     15461     15462     15461     15463     15462     15463     15464     15465
     15464     15466     15465     15466     15467     15468     15467     15469
     15468     15469     15470     15471     15470     15472     15471     15472
     15473     15474     15473     15475     15474     15475     15476     15477
     15476     15478     15477     15478     15479     15480     15479     15481
     15480     15481     15482     15483     15482     15484     15483     15484
     15485     15486     15485     15487     15486     15487     15488     15489
     15488     15490     15489     15490     15491     15492     15491     15493
     15492     15493     15494     15495     15494     15496     15495     15496
     15497     15498     15497     15499     15498     15499     15500     15501
     15500     15502     15501     15502     15503     15504     15503     15505
     15504     15505     15506     15507     15506     15508     15507     15508
     15509     15510     15509     15511     15510     15511     15512     15513
     15512     15514     15513     15514     15515     15516     15515     15517
     15516     15517     15518     15519     15518     15520     15519     15520
     15521     15522     15521     15523     15522     15523     15524     15525
     15524     15526     15525     15526     15527     15528     15527     15529
     15528     15529     15530     15531     15530     15532     15531     15532
     15533     15534     15533     15535     15534     15535     15536     15537
     15536     15538     15537     15538     15539     15540     15539     15541
     15540     15541     15542     15543     15542     15544     15543     15544
     15545     15546     15545     15547     15546     15547     15548     15549
     15548     15550     15549     15550     15551     15552     15551     15553
     15552     15553     15554     15555     15554     15556     15555     15556
     15557     15558     15557     15559     15558     15559     15560     15561
     15560     15562     15561     15562     15563     15564     15563     15565
     15564     15565     15566     15567     15566     15568     15567     15568
     15569     15570     15569     15571     15570     15571     15572     15573
     15572     15574     15573     15574     15575     15576     15575     15577
     15576     15577     15578     15579     15578     15580     15579     15580
     15581     15582     15581     15583     15582     15583     15584     15585
     15584     15586     15585     15586     15587     15588     15587     15589
     15588     15589     15590     15591     15590     15592     15591     15592
     15593     15594     15593     15595     15594     15595     15596     15597
     15596     15598     15597     15598     15599     15600     15599     15601
     15600     15601     15602     15603     15602     15604     15603     15604
     15605     15606     15605     15607     15606     15607     15608     15609
     15608     15610     15609     15610     15611     15612     15611     15613
     15612     15613     15614     15615     15614     15616     15615     15616
     15617     15618     15617     15619     15618     15619     15620     15621
     15620     15622     15621     15622     15623     15624     15623     15625
     15624     15625     15626     15627     15626     15628     15627     15628
     15629     15630     15629     15631     15630     15631     15632     15633
     15632     15634     15633     15634     15635     15636     15635     15637
     15636     15637     15638     15639     15638     15640     15639     15640
     15641     15642     15641     15643     15642     15643     15644     15645
     15644     15646     15645     15646     15647     15648     15647     15649
     15648     15649     15650     15651     15650     15652     15651     15652
     15653     15654     15653     15655     15654     15655     15656     15657
     15656     15658     15657     15658     15659     15660     15659     15661
     15660     15661     15662     15663     15662     15664     15663     15664
     15665     15666     15665     15667     15666     15667     15668     15669
     15668     15670     15669     15670     15671     15672     15671     15673
     15672     15673     15674     15675     15674     15676     15675     15676
     15677     15678     15677     15679     15678     15679     15680     15681
     15680     15682     15681     15682     15683     15684     15683     15685
     15684     15685     15686     15687     15686     15688     15687     15688
     15689     15690     15689     15691     15690     15691     15692     15693
     15692     15694     15693     15694     15695     15696     15695     15697
     15696     15697     15698     15699     15698     15700     15699     15700
     15701     15702     15701     15703     15702     15703     15704     15705
     15704     15706     15705     15706     15707     15708     15707     15709
     15708     15709     15710     15711     15710     15712     15711     15712
     15713     15714     15713     15715     15714     15715     15716     15717
     15716     15718     15717     15718     15719     15720     15719     15721
     15720     15721     15722     15723     15722     15724     15723     15724
     15725     15726     15725     15727     15726     15727     15728     15729
     15728     15730     15729     15730     15731     15732     15731     15733
     15732     15733     15734     15735     15734     15736     15735     15736
     15737     15738     15737     15739     15738     15739     15740     15741
     15740     15742     15741     15742     15743     15744     15743     15745
     15744     15745     15746     15747     15746     15748     15747     15748
     15749     15750     15749     15751     15750     15751     15752     15753
     15752     15754     15753     15754     15755     15756     15755     15757
     15756     15757     15758     15759     15758     15760     15759     15760
     15761     15762     15761     15763     15762     15763     15764     15765
     15764     15766     15765     15766     15767     15768     15767     15769
     15768     15769     15770     15771     15770     15772     15771     15772
     15773     15774     15773     15775     15774     15775     15776     15777
     15776     15778     15777     15778     15779     15780     15779     15781
     15780     15781     15782     15783     15782     15784     15783     15784
     15785     15786     15785     15787     15786     15787     15788     15789
     15788     15790     15789     15790     15791     15792     15791     15793
     15792     15793     15794     15795     15794     15796     15795     15796
     15797     15798     15797     15799     15798     15799     15800     15801
     15800     15802     15801     15802     15803     15804     15803     15805
     15804     15805     15806     15807     15806     15808     15807     15808
     15809     15810     15809     15811     15810     15811     15812     15813
     15812     15814     15813     15814     15815     15816     15815     15817
     15816     15817     15818     15819     15818     15820     15819     15820
     15821     15822     15821     15823     15822     15823     15824     15825
     15824     15826     15825     15826     15827     15828     15827     15829
     15828     15829     15830     15831     15830     15832     15831     15832
     15833     15834     15833     15835     15834     15835     15836     15837
     15836     15838     15837     15838     15839     15840     15839     15841
     15840     15841     15842     15843     15842     15844     15843     15844
     15845     15846     15845     15847     15846     15847     15848     15849
     15848     15850     15849     15850     15851     15852     15851     15853
     15852     15853     15854     15855     15854     15856     15855     15856
     15857     15858     15857     15859     15858     15859     15860     15861
     15860     15862     15861     15862     15863     15864     15863     15865
     15864     15865     15866     15867     15866     15868     15867     15868
     15869     15870     15869     15871     15870     15871     15872     15873
     15872     15874     15873     15874     15875     15876     15875     15877
     15876     15877     15878     15879     15878     15880     15879     15880
     15881     15882     15881     15883     15882     15883     15884     15885
     15884     15886     15885     15886     15887     15888     15887     15889
     15888     15889     15890     15891     15890     15892     15891     15892
     15893     15894     15893     15895     15894     15895     15896     15897
     15896     15898     15897     15898     15899     15900     15899     15901
     15900     15901     15902     15903     15902     15904     15903     15904
     15905     15906     15905     15907     15906     15907     15908     15909
     15908     15910     15909     15910     15911     15912     15911     15913
     15912     15913     15914     15915     15914     15916     15915     15916
     15917     15918     15917     15919     15918     15919     15920     15921
     15920     15922     15921     15922     15923     15924     15923     15925
     15924     15925     15926     15927     15926     15928     15927     15928
     15929     15930     15929     15931     15930     15931     15932     15933
     15932     15934     15933     15934     15935     15936     15935     15937
     15936     15937     15938     15939     15938     15940     15939     15940
     15941     15942     15941     15943     15942     15943     15944     15945
     15944     15946     15945     15946     15947     15948     15947     15949
     15948     15949     15950     15951     15950     15952     15951     15952
     15953     15954     15953     15955     15954     15955     15956     15957
     15956     15958     15957     15958     15959     15960     15959     15961
     15960     15961     15962     15963     15962     15964     15963     15964
     15965     15966     15965     15967     15966     15967     15968     15969
     15968     15970     15969     15970     15971     15972     15971     15973
     15972     15973     15974     15975     15974     15976     15975     15976
     15977     15978     15977     15979     15978     15979     15980     15981
     15980     15982     15981     15982     15983     15984     15983     15985
     15984     15985     15986     15987     15986     15988     15987     15988
     15989     15990     15989     15991     15990     15991     15992     15993
     15992     15994     15993     15994     15995     15996     15995     15997
     15996     15997     15998     15999     15998     16000     15999     16000
     16001     16002     16001     16003     16002     16003     16004     16005
     16004     16006     16005     16006     16007     16008     16007     16009
     16008     16009     16010     16011     16010     16012     16011     16012
     16013     16014     16013     16015     16014     16015     16016     16017
     16016     16018     16017     16018     16019     16020     16019     16021
     16020     16021     16022     16023     16022     16024     16023     16024
     16025     16026     16025     16027     16026     16027     16028     16029
     16028     16030     16029     16030     16031     16032     16031     16033
     16032     16033     16034     16035     16034     16036     16035     16036
     16037     16038     16037     16039     16038     16039     16040     16041
     16040     16042     16041     16042     16043     16044     16043     16045
     16044     16045     16046     16047     16046     16048     16047     16048
     16049     16050     16049     16051     16050     16051     16052     16053
     16052     16054     16053     16054     16055     16056     16055     16057
     16056     16057     16058     16059     16058     16060     16059     16060
     16061     16062     16061     16063     16062     16063     16064     16065
     16064     16066     16065     16066     16067     16068     16067     16069
     16068     16069     16070     16071     16070     16072     16071     16072
     16073     16074     16073     16075     16074     16075     16076     16077
     16076     16078     16077     16078     16079     16080     16079     16081
     16080     16081     16082     16083     16082     16084     16083     16084
     16085     16086     16085     16087     16086     16087     16088     16089
     16088     16090     16089     16090     16091     16092     16091     16093
     16092     16093     16094     16095     16094     16096     16095     16096
     16097     16098     16097     16099     16098     16099     16100     16101
     16100     16102     16101     16102     16103     16104     16103     16105
     16104     16105     16106     16107     16106     16108     16107     16108
     16109     16110     16109     16111     16110     16111     16112     16113
     16112     16114     16113     16114     16115     16116     16115     16117
     16116     16117     16118     16119     16118     16120     16119     16120
     16121     16122     16121     16123     16122     16123     16124     16125
     16124     16126     16125     16126     16127     16128     16127     16129
     16128     16129     16130     16131     16130     16132     16131     16132
     16133     16134     16133     16135     16134     16135     16136     16137
     16136     16138     16137     16138     16139     16140     16139     16141
     16140     16141     16142     16143     16142     16144     16143     16144
     16145     16146     16145     16147     16146     16147     16148     16149
     16148     16150     16149     16150     16151     16152     16151     16153
     16152     16153     16154     16155     16154     16156     16155     16156
     16157     16158     16157     16159     16158     16159     16160     16161
     16160     16162     16161     16162     16163     16164     16163     16165
     16164     16165     16166     16167     16166     16168     16167     16168
     16169     16170     16169     16171     16170     16171     16172     16173
     16172     16174     16173     16174     16175     16176     16175     16177
     16176     16177     16178     16179     16178     16180     16179     16180
     16181     16182     16181     16183     16182     16183     16184     16185
     16184     16186     16185     16186     16187     16188     16187     16189
     16188     16189     16190     16191     16190     16192     16191     16192
     16193     16194     16193     16195     16194     16195     16196     16197
     16196     16198     16197     16198     16199     16200     16199     16201
     16200     16201     16202     16203     16202     16204     16203     16204
     16205     16206     16205     16207     16206     16207     16208     16209
     16208     16210     16209     16210     16211     16212     16211     16213
     16212     16213     16214     16215     16214     16216     16215     16216
     16217     16218     16217     16219     16218     16219     16220     16221
     16220     16222     16221     16222     16223     16224     16223     16225
     16224     16225     16226     16227     16226     16228     16227     16228
     16229     16230     16229     16231     16230     16231     16232     16233
     16232     16234     16233     16234     16235     16236     16235     16237
     16236     16237     16238     16239     16238     16240     16239     16240
     16241     16242     16241     16243     16242     16243     16244     16245
     16244     16246     16245     16246     16247     16248     16247     16249
     16248     16249     16250     16251     16250     16252     16251     16252
     16253     16254     16253     16255     16254     16255     16256     16257
     16256     16258     16257     16258     16259     16260     16259     16261
     16260     16261     16262     16263     16262     16264     16263     16264
     16265     16266     16265     16267     16266     16267     16268     16269
     16268     16270     16269     16270     16271     16272     16271     16273
     16272     16273     16274     16275     16274     16276     16275     16276
     16277     16278     16277     16279     16278     16279     16280     16281
     16280     16282     16281     16282     16283     16284     16283     16285
     16284     16285     16286     16287     16286     16288     16287     16288
     16289     16290     16289     16291     16290     16291     16292     16293
     16292     16294     16293     16294     16295     16296     16295     16297
     16296     16297     16298     16299     16298     16300     16299     16300
     16301     16302     16301     16303     16302     16303     16304     16305
     16304     16306     16305     16306     16307     16308     16307     16309
     16308     16309     16310     16311     16310     16312     16311     16312
     16313     16314     16313     16315     16314     16315     16316     16317
     16316     16318     16317     16318     16319     16320     16319     16321
     16320     16321     16322     16323     16322     16324     16323     16324
     16325     16326     16325     16327     16326     16327     16328     16329
     16328     16330     16329     16330     16331     16332     16331     16333
     16332     16333     16334     16335     16334     16336     16335     16336
     16337     16338     16337     16339     16338     16339     16340     16341
     16340     16342     16341     16342     16343     16344     16343     16345
     16344     16345     16346     16347     16346     16348     16347     16348
     16349     16350     16349     16351     16350     16351     16352     16353
     16352     16354     16353     16354     16355     16356     16355     16357
     16356     16357     16358     16359     16358     16360     16359     16360
     16361     16362     16361     16363     16362     16363     16364     16365
     16364     16366     16365     16366     16367     16368     16367     16369
     16368     16369     16370     16371     16370     16372     16371     16372
     16373     16374     16373     16375     16374     16375     16376     16377
     16376     16378     16377     16378     16379     16380     16379     16381
     16380     16381     16382     16383     16382     16384     16383     16384
     16385     16386     16385     16387     16386     16387     16388     16389
     16388     16390     16389     16390     16391     16392     16391     16393
     16392     16393     16394     16395     16394     16396     16395     16396
     16397     16398     16397     16399     16398     16399     16400     16401
     16400     16402     16401     16402     16403     16404     16403     16405
     16404     16405     16406     16407     16406     16408     16407     16408
     16409     16410     16409     16411     16410     16411     16412     16413
     16412     16414     16413     16414     16415     16416     16415     16417
     16416     16417     16418     16419     16418     16420     16419     16420
     16421     16422     16421     16423     16422     16423     16424     16425
     16424     16426     16425     16426     16427     16428     16427     16429
     16428     16429     16430     16431     16430     16432     16431     16432
     16433     16434     16433     16435     16434     16435     16436     16437
     16436     16438     16437     16438     16439     16440     16439     16441
     16440     16441     16442     16443     16442     16444     16443     16444
     16445     16446     16445     16447     16446     16447     16448     16449
     16448     16450     16449     16450     16451     16452     16451     16453
     16452     16453     16454     16455     16454     16456     16455     16456
     16457     16458     16457     16459     16458     16459     16460     16461
     16460     16462     16461     16462     16463     16464     16463     16465
     16464     16465     16466     16467     16466     16468     16467     16468
     16469     16470     16469     16471     16470     16471     16472     16473
     16472     16474     16473     16474     16475     16476     16475     16477
     16476     16477     16478     16479     16478     16480     16479     16480
     16481     16482     16481     16483     16482     16483     16484     16485
     16484     16486     16485     16486     16487     16488     16487     16489
     16488     16489     16490     16491     16490     16492     16491     16492
     16493     16494     16493     16495     16494     16495     16496     16497
     16496     16498     16497     16498     16499     16500     16499     16501
     16500     16501     16502     16503     16502     16504     16503     16504
     16505     16506     16505     16507     16506     16507     16508     16509
     16508     16510     16509     16510     16511     16512     16511     16513
     16512     16513     16514     16515     16514     16516     16515     16516
     16517     16518     16517     16519     16518     16519     16520     16521
     16520     16522     16521     16522     16523     16524     16523     16525
     16524     16525     16526     16527     16526     16528     16527     16528
     16529     16530     16529     16531     16530     16531     16532     16533
     16532     16534     16533     16534     16535     16536     16535     16537
     16536     16537     16538     16539     16538     16540     16539     16540
     16541     16542     16541     16543     16542     16543     16544     16545
     16544     16546     16545     16546     16547     16548     16547     16549
     16548     16549     16550     16551     16550     16552     16551     16552
     16553     16554     16553     16555     16554     16555     16556     16557
     16556     16558     16557     16558     16559     16560     16559     16561
     16560     16561     16562     16563     16562     16564     16563     16564
     16565     16566     16565     16567     16566     16567     16568     16569
     16568     16570     16569     16570     16571     16572     16571     16573
     16572     16573     16574     16575     16574     16576     16575     16576
     16577     16578     16577     16579     16578     16579     16580     16581
     16580     16582     16581     16582     16583     16584     16583     16585
     16584     16585     16586     16587     16586     16588     16587     16588
     16589     16590     16589     16591     16590     16591     16592     16593
     16592     16594     16593     16594     16595     16596     16595     16597
     16596     16597     16598     16599     16598     16600     16599     16600
     16601     16602     16601     16603     16602     16603     16604     16605
     16604     16606     16605     16606     16607     16608     16607     16609
     16608     16609     16610     16611     16610     16612     16611     16612
     16613     16614     16613     16615     16614     16615     16616     16617
     16616     16618     16617     16618     16619     16620     16619     16621
     16620     16621     16622     16623     16622     16624     16623     16624
     16625     16626     16625     16627     16626     16627     16628     16629
     16628     16630     16629     16630     16631     16632     16631     16633
     16632     16633     16634     16635     16634     16636     16635     16636
     16637     16638     16637     16639     16638     16639     16640     16641
     16640     16642     16641     16642     16643     16644     16643     16645
     16644     16645     16646     16647     16646     16648     16647     16648
     16649     16650     16649     16651     16650     16651     16652     16653
     16652     16654     16653     16654     16655     16656     16655     16657
     16656     16657     16658     16659     16658     16660     16659     16660
     16661     16662     16661     16663     16662     16663     16664     16665
     16664     16666     16665     16666     16667     16668     16667     16669
     16668     16669     16670     16671     16670     16672     16671     16672
     16673     16674     16673     16675     16674     16675     16676     16677
     16676     16678     16677     16678     16679     16680     16679     16681
     16680     16681     16682     16683     16682     16684     16683     16684
     16685     16686     16685     16687     16686     16687     16688     16689
     16688     16690     16689     16690     16691     16692     16691     16693
     16692     16693     16694     16695     16694     16696     16695     16696
     16697     16698     16697     16699     16698     16699     16700     16701
     16700     16702     16701     16702     16703     16704     16703     16705
     16704     16705     16706     16707     16706     16708     16707     16708
     16709     16710     16709     16711     16710     16711     16712     16713
     16712     16714     16713     16714     16715     16716     16715     16717
     16716     16717     16718     16719     16718     16720     16719     16720
     16721     16722     16721     16723     16722     16723     16724     16725
     16724     16726     16725     16726     16727     16728     16727     16729
     16728     16729     16730     16731     16730     16732     16731     16732
     16733     16734     16733     16735     16734     16735     16736     16737
     16736     16738     16737     16738     16739     16740     16739     16741
     16740     16741     16742     16743     16742     16744     16743     16744
     16745     16746     16745     16747     16746     16747     16748     16749
     16748     16750     16749     16750     16751     16752     16751     16753
     16752     16753     16754     16755     16754     16756     16755     16756
     16757     16758     16757     16759     16758     16759     16760     16761
     16760     16762     16761     16762     16763     16764     16763     16765
     16764     16765     16766     16767     16766     16768     16767     16768
     16769     16770     16769     16771     16770     16771     16772     16773
     16772     16774     16773     16774     16775     16776     16775     16777
     16776     16777     16778     16779     16778     16780     16779     16780
     16781     16782     16781     16783     16782     16783     16784     16785
     16784     16786     16785     16786     16787     16788     16787     16789
     16788     16789     16790     16791     16790     16792     16791     16792
     16793     16794     16793     16795     16794     16795     16796     16797
     16796     16798     16797     16798     16799     16800     16799     16801
     16800     16801     16802     16803     16802     16804     16803     16804
     16805     16806     16805     16807     16806     16807     16808     16809
     16808     16810     16809     16810     16811     16812     16811     16813
     16812     16813     16814     16815     16814     16816     16815     16816
     16817     16818     16817     16819     16818     16819     16820     16821
     16820     16822     16821     16822     16823     16824     16823     16825
     16824     16825     16826     16827     16826     16828     16827     16828
     16829     16830     16829     16831     16830     16831     16832     16833
     16832     16834     16833     16834     16835     16836     16835     16837
     16836     16837     16838     16839     16838     16840     16839     16840
     16841     16842     16841     16843     16842     16843     16844     16845
     16844     16846     16845     16846     16847     16848     16847     16849
     16848     16849     16850     16851     16850     16852     16851     16852
     16853     16854     16853     16855     16854     16855     16856     16857
     16856     16858     16857     16858     16859     16860     16859     16861
     16860     16861     16862     16863     16862     16864     16863     16864
     16865     16866     16865     16867     16866     16867     16868     16869
     16868     16870     16869     16870     16871     16872     16871     16873
     16872     16873     16874     16875     16874     16876     16875     16876
     16877     16878     16877     16879     16878     16879     16880     16881
     16880     16882     16881     16882     16883     16884     16883     16885
     16884     16885     16886     16887     16886     16888     16887     16888
     16889     16890     16889     16891     16890     16891     16892     16893
     16892     16894     16893     16894     16895     16896     16895     16897
     16896     16897     16898     16899     16898     16900     16899     16900
     16901     16902     16901     16903     16902     16903     16904     16905
     16904     16906     16905     16906     16907     16908     16907     16909
     16908     16909     16910     16911     16910     16912     16911     16912
     16913     16914     16913     16915     16914     16915     16916     16917
     16916     16918     16917     16918     16919     16920     16919     16921
     16920     16921     16922     16923     16922     16924     16923     16924
     16925     16926     16925     16927     16926     16927     16928     16929
     16928     16930     16929     16930     16931     16932     16931     16933
     16932     16933     16934     16935     16934     16936     16935     16936
     16937     16938     16937     16939     16938     16939     16940     16941
     16940     16942     16941     16942     16943     16944     16943     16945
     16944     16945     16946     16947     16946     16948     16947     16948
     16949     16950     16949     16951     16950     16951     16952     16953
     16952     16954     16953     16954     16955     16956     16955     16957
     16956     16957     16958     16959     16958     16960     16959     16960
     16961     16962     16961     16963     16962     16963     16964     16965
     16964     16966     16965     16966     16967     16968     16967     16969
     16968     16969     16970     16971     16970     16972     16971     16972
     16973     16974     16973     16975     16974     16975     16976     16977
     16976     16978     16977     16978     16979     16980     16979     16981
     16980     16981     16982     16983     16982     16984     16983     16984
     16985     16986     16985     16987     16986     16987     16988     16989
     16988     16990     16989     16990     16991     16992     16991     16993
     16992     16993     16994     16995     16994     16996     16995     16996
     16997     16998     16997     16999     16998     16999     17000     17001
     17000     17002     17001     17002     17003     17004     17003     17005
     17004     17005     17006     17007     17006     17008     17007     17008
     17009     17010     17009     17011     17010     17011     17012     17013
     17012     17014     17013     17014     17015     17016     17015     17017
     17016     17017     17018     17019     17018     17020     17019     17020
     17021     17022     17021     17023     17022     17023     17024     17025
     17024     17026     17025     17026     17027     17028     17027     17029
     17028     17029     17030     17031     17030     17032     17031     17032
     17033     17034     17033     17035     17034     17035     17036     17037
     17036     17038     17037     17038     17039     17040     17039     17041
     17040     17041     17042     17043     17042     17044     17043     17044
     17045     17046     17045     17047     17046     17047     17048     17049
     17048     17050     17049     17050     17051     17052     17051     17053
     17052     17053     17054     17055     17054     17056     17055     17056
     17057     17058     17057     17059     17058     17059     17060     17061
     17060     17062     17061     17062     17063     17064     17063     17065
     17064     17065     17066     17067     17066     17068     17067     17068
     17069     17070     17069     17071     17070     17071     17072     17073
     17072     17074     17073     17074     17075     17076     17075     17077
     17076     17077     17078     17079     17078     17080     17079     17080
     17081     17082     17081     17083     17082     17083     17084     17085
     17084     17086     17085     17086     17087     17088     17087     17089
     17088     17089     17090     17091     17090     17092     17091     17092
     17093     17094     17093     17095     17094     17095     17096     17097
     17096     17098     17097     17098     17099     17100     17099     17101
     17100     17101     17102     17103     17102     17104     17103     17104
     17105     17106     17105     17107     17106     17107     17108     17109
     17108     17110     17109     17110     17111     17112     17111     17113
     17112     17113     17114     17115     17114     17116     17115     17116
     17117     17118     17117     17119     17118     17119     17120     17121
     17120     17122     17121     17122     17123     17124     17123     17125
     17124     17125     17126     17127     17126     17128     17127     17128
     17129     17130     17129     17131     17130     17131     17132     17133
     17132     17134     17133     17134     17135     17136     17135     17137
     17136     17137     17138     17139     17138     17140     17139     17140
     17141     17142     17141     17143     17142     17143     17144     17145
     17144     17146     17145     17146     17147     17148     17147     17149
     17148     17149     17150     17151     17150     17152     17151     17152
     17153     17154     17153     17155     17154     17155     17156     17157
     17156     17158     17157     17158     17159     17160     17159     17161
     17160     17161     17162     17163     17162     17164     17163     17164
     17165     17166     17165     17167     17166     17167     17168     17169
     17168     17170     17169     17170     17171     17172     17171     17173
     17172     17173     17174     17175     17174     17176     17175     17176
     17177     17178     17177     17179     17178     17179     17180     17181
     17180     17182     17181     17182     17183     17184     17183     17185
     17184     17185     17186     17187     17186     17188     17187     17188
     17189     17190     17189     17191     17190     17191     17192     17193
     17192     17194     17193     17194     17195     17196     17195     17197
     17196     17197     17198     17199     17198     17200     17199     17200
     17201     17202     17201     17203     17202     17203     17204     17205
     17204     17206     17205     17206     17207     17208     17207     17209
     17208     17209     17210     17211     17210     17212     17211     17212
     17213     17214     17213     17215     17214     17215     17216     17217
     17216     17218     17217     17218     17219     17220     17219     17221
     17220     17221     17222     17223     17222     17224     17223     17224
     17225     17226     17225     17227     17226     17227     17228     17229
     17228     17230     17229     17230     17231     17232     17231     17233
     17232     17233     17234     17235     17234     17236     17235     17236
     17237     17238     17237     17239     17238     17239     17240     17241
     17240     17242     17241     17242     17243     17244     17243     17245
     17244     17245     17246     17247     17246     17248     17247     17248
     17249     17250     17249     17251     17250     17251     17252     17253
     17252     17254     17253     17254     17255     17256     17255     17257
     17256     17257     17258     17259     17258     17260     17259     17260
     17261     17262     17261     17263     17262     17263     17264     17265
     17264     17266     17265     17266     17267     17268     17267     17269
     17268     17269     17270     17271     17270     17272     17271     17272
     17273     17274     17273     17275     17274     17275     17276     17277
     17276     17278     17277     17278     17279     17280     17279     17281
     17280     17281     17282     17283     17282     17284     17283     17284
     17285     17286     17285     17287     17286     17287     17288     17289
     17288     17290     17289     17290     17291     17292     17291     17293
     17292     17293     17294     17295     17294     17296     17295     17296
     17297     17298     17297     17299     17298     17299     17300     17301
     17300     17302     17301     17302     17303     17304     17303     17305
     17304     17305     17306     17307     17306     17308     17307     17308
     17309     17310     17309     17311     17310     17311     17312     17313
     17312     17314     17313     17314     17315     17316     17315     17317
     17316     17317     17318     17319     17318     17320     17319     17320
     17321     17322     17321     17323     17322     17323     17324     17325
     17324     17326     17325     17326     17327     17328     17327     17329
     17328     17329     17330     17331     17330     17332     17331     17332
     17333     17334     17333     17335     17334     17335     17336     17337
     17336     17338     17337     17338     17339     17340     17339     17341
     17340     17341     17342     17343     17342     17344     17343     17344
     17345     17346     17345     17347     17346     17347     17348     17349
     17348     17350     17349     17350     17351     17352     17351     17353
     17352     17353     17354     17355     17354     17356     17355     17356
     17357     17358     17357     17359     17358     17359     17360     17361
     17360     17362     17361     17362     17363     17364     17363     17365
     17364     17365     17366     17367     17366     17368     17367     17368
     17369     17370     17369     17371     17370     17371     17372     17373
     17372     17374     17373     17374     17375     17376     17375     17377
     17376     17377     17378     17379     17378     17380     17379     17380
     17381     17382     17381     17383     17382     17383     17384     17385
     17384     17386     17385     17386     17387     17388     17387     17389
     17388     17389     17390     17391     17390     17392     17391     17392
     17393     17394     17393     17395     17394     17395     17396     17397
     17396     17398     17397     17398     17399     17400     17399     17401
     17400     17401     17402     17403     17402     17404     17403     17404
     17405     17406     17405     17407     17406     17407     17408     17409
     17408     17410     17409     17410     17411     17412     17411     17413
     17412     17413     17414     17415     17414     17416     17415     17416
     17417     17418     17417     17419     17418     17419     17420     17421
     17420     17422     17421     17422     17423     17424     17423     17425
     17424     17425     17426     17427     17426     17428     17427     17428
     17429     17430     17429     17431     17430     17431     17432     17433
     17432     17434     17433     17434     17435     17436     17435     17437
     17436     17437     17438     17439     17438     17440     17439     17440
     17441     17442     17441     17443     17442     17443     17444     17445
     17444     17446     17445     17446     17447     17448     17447     17449
     17448     17449     17450     17451     17450     17452     17451     17452
     17453     17454     17453     17455     17454     17455     17456     17457
     17456     17458     17457     17458     17459     17460     17459     17461
     17460     17461     17462     17463     17462     17464     17463     17464
     17465     17466     17465     17467     17466     17467     17468     17469
     17468     17470     17469     17470     17471     17472     17471     17473
     17472     17473     17474     17475     17474     17476     17475     17476
     17477     17478     17477     17479     17478     17479     17480     17481
     17480     17482     17481     17482     17483     17484     17483     17485
     17484     17485     17486     17487     17486     17488     17487     17488
     17489     17490     17489     17491     17490     17491     17492     17493
     17492     17494     17493     17494     17495     17496     17495     17497
     17496     17497     17498     17499     17498     17500     17499     17500
     17501     17502     17501     17503     17502     17503     17504     17505
     17504     17506     17505     17506     17507     17508     17507     17509
     17508     17509     17510     17511     17510     17512     17511     17512
     17513     17514     17513     17515     17514     17515     17516     17517
     17516     17518     17517     17518     17519     17520     17519     17521
     17520     17521     17522     17523     17522     17524     17523     17524
     17525     17526     17525     17527     17526     17527     17528     17529
     17528     17530     17529     17530     17531     17532     17531     17533
     17532     17533     17534     17535     17534     17536     17535     17536
     17537     17538     17537     17539     17538     17539     17540     17541
     17540     17542     17541     17542     17543     17544     17543     17545
     17544     17545     17546     17547     17546     17548     17547     17548
     17549     17550     17549     17551     17550     17551     17552     17553
     17552     17554     17553     17554     17555     17556     17555     17557
     17556     17557     17558     17559     17558     17560     17559     17560
     17561     17562     17561     17563     17562     17563     17564     17565
     17564     17566     17565     17566     17567     17568     17567     17569
     17568     17569     17570     17571     17570     17572     17571     17572
     17573     17574     17573     17575     17574     17575     17576     17577
     17576     17578     17577     17578     17579     17580     17579     17581
     17580     17581     17582     17583     17582     17584     17583     17584
     17585     17586     17585     17587     17586     17587     17588     17589
     17588     17590     17589     17590     17591     17592     17591     17593
     17592     17593     17594     17595     17594     17596     17595     17596
     17597     17598     17597     17599     17598     17599     17600     17601
     17600     17602     17601     17602     17603     17604     17603     17605
     17604     17605     17606     17607     17606     17608     17607     17608
     17609     17610     17609     17611     17610     17611     17612     17613
     17612     17614     17613     17614     17615     17616     17615     17617
     17616     17617     17618     17619     17618     17620     17619     17620
     17621     17622     17621     17623     17622     17623     17624     17625
     17624     17626     17625     17626     17627     17628     17627     17629
     17628     17629     17630     17631     17630     17632     17631     17632
     17633     17634     17633     17635     17634     17635     17636     17637
     17636     17638     17637     17638     17639     17640     17639     17641
     17640     17641     17642     17643     17642     17644     17643     17644
     17645     17646     17645     17647     17646     17647     17648     17649
     17648     17650     17649     17650     17651     17652     17651     17653
     17652     17653     17654     17655     17654     17656     17655     17656
     17657     17658     17657     17659     17658     17659     17660     17661
     17660     17662     17661     17662     17663     17664     17663     17665
     17664     17665     17666     17667     17666     17668     17667     17668
     17669     17670     17669     17671     17670     17671     17672     17673
     17672     17674     17673     17674     17675     17676     17675     17677
     17676     17677     17678     17679     17678     17680     17679     17680
     17681     17682     17681     17683     17682     17683     17684     17685
     17684     17686     17685     17686     17687     17688     17687     17689
     17688     17689     17690     17691     17690     17692     17691     17692
     17693     17694     17693     17695     17694     17695     17696     17697
     17696     17698     17697     17698     17699     17700     17699     17701
     17700     17701     17702     17703     17702     17704     17703     17704
     17705     17706     17705     17707     17706     17707     17708     17709
     17708     17710     17709     17710     17711     17712     17711     17713
     17712     17713     17714     17715     17714     17716     17715     17716
     17717     17718     17717     17719     17718     17719     17720     17721
     17720     17722     17721     17722     17723     17724     17723     17725
     17724     17725     17726     17727     17726     17728     17727     17728
     17729     17730     17729     17731     17730     17731     17732     17733
     17732     17734     17733     17734     17735     17736     17735     17737
     17736     17737     17738     17739     17738     17740     17739     17740
     17741     17742     17741     17743     17742     17743     17744     17745
     17744     17746     17745     17746     17747     17748     17747     17749
     17748     17749     17750     17751     17750     17752     17751     17752
     17753     17754     17753     17755     17754     17755     17756     17757
     17756     17758     17757     17758     17759     17760     17759     17761
     17760     17761     17762     17763     17762     17764     17763     17764
     17765     17766     17765     17767     17766     17767     17768     17769
     17768     17770     17769     17770     17771     17772     17771     17773
     17772     17773     17774     17775     17774     17776     17775     17776
     17777     17778     17777     17779     17778     17779     17780     17781
     17780     17782     17781     17782     17783     17784     17783     17785
     17784     17785     17786     17787     17786     17788     17787     17788
     17789     17790     17789     17791     17790     17791     17792     17793
     17792     17794     17793     17794     17795     17796     17795     17797
     17796     17797     17798     17799     17798     17800     17799     17800
     17801     17802     17801     17803     17802     17803     17804     17805
     17804     17806     17805     17806     17807     17808     17807     17809
     17808     17809     17810     17811     17810     17812     17811     17812
     17813     17814     17813     17815     17814     17815     17816     17817
     17816     17818     17817     17818     17819     17820     17819     17821
     17820     17821     17822     17823     17822     17824     17823     17824
     17825     17826     17825     17827     17826     17827     17828     17829
     17828     17830     17829     17830     17831     17832     17831     17833
     17832     17833     17834     17835     17834     17836     17835     17836
     17837     17838     17837     17839     17838     17839     17840     17841
     17840     17842     17841     17842     17843     17844     17843     17845
     17844     17845     17846     17847     17846     17848     17847     17848
     17849     17850     17849     17851     17850     17851     17852     17853
     17852     17854     17853     17854     17855     17856     17855     17857
     17856     17857     17858     17859     17858     17860     17859     17860
     17861     17862     17861     17863     17862     17863     17864     17865
     17864     17866     17865     17866     17867     17868     17867     17869
     17868     17869     17870     17871     17870     17872     17871     17872
     17873     17874     17873     17875     17874     17875     17876     17877
     17876     17878     17877     17878     17879     17880     17879     17881
     17880     17881     17882     17883     17882     17884     17883     17884
     17885     17886     17885     17887     17886     17887     17888     17889
     17888     17890     17889     17890     17891     17892     17891     17893
     17892     17893     17894     17895     17894     17896     17895     17896
     17897     17898     17897     17899     17898     17899     17900     17901
     17900     17902     17901     17902     17903     17904     17903     17905
     17904     17905     17906     17907     17906     17908     17907     17908
     17909     17910     17909     17911     17910     17911     17912     17913
     17912     17914     17913     17914     17915     17916     17915     17917
     17916     17917     17918     17919     17918     17920     17919     17920
     17921     17922     17921     17923     17922     17923     17924     17925
     17924     17926     17925     17926     17927     17928     17927     17929
     17928     17929     17930     17931     17930     17932     17931     17932
     17933     17934     17933     17935     17934     17935     17936     17937
     17936     17938     17937     17938     17939     17940     17939     17941
     17940     17941     17942     17943     17942     17944     17943     17944
     17945     17946     17945     17947     17946     17947     17948     17949
     17948     17950     17949     17950     17951     17952     17951     17953
     17952     17953     17954     17955     17954     17956     17955     17956
     17957     17958     17957     17959     17958     17959     17960     17961
     17960     17962     17961     17962     17963     17964     17963     17965
     17964     17965     17966     17967     17966     17968     17967     17968
     17969     17970     17969     17971     17970     17971     17972     17973
     17972     17974     17973     17974     17975     17976     17975     17977
     17976     17977     17978     17979     17978     17980     17979     17980
     17981     17982     17981     17983     17982     17983     17984     17985
     17984     17986     17985     17986     17987     17988     17987     17989
     17988     17989     17990     17991     17990     17992     17991     17992
     17993     17994     17993     17995     17994     17995     17996     17997
     17996     17998     17997     17998     17999     18000     17999     18001
     18000     18001     18002     18003     18002     18004     18003     18004
     18005     18006     18005     18007     18006     18007     18008     18009
     18008     18010     18009     18010     18011     18012     18011     18013
     18012     18013     18014     18015     18014     18016     18015     18016
     18017     18018     18017     18019     18018     18019     18020     18021
     18020     18022     18021     18022     18023     18024     18023     18025
     18024     18025     18026     18027     18026     18028     18027     18028
     18029     18030     18029     18031     18030     18031     18032     18033
     18032     18034     18033     18034     18035     18036     18035     18037
     18036     18037     18038     18039     18038     18040     18039     18040
     18041     18042     18041     18043     18042     18043     18044     18045
     18044     18046     18045     18046     18047     18048     18047     18049
     18048     18049     18050     18051     18050     18052     18051     18052
     18053     18054     18053     18055     18054     18055     18056     18057
     18056     18058     18057     18058     18059     18060     18059     18061
     18060     18061     18062     18063     18062     18064     18063     18064
     18065     18066     18065     18067     18066     18067     18068     18069
     18068     18070     18069     18070     18071     18072     18071     18073
     18072     18073     18074     18075     18074     18076     18075     18076
     18077     18078     18077     18079     18078     18079     18080     18081
     18080     18082     18081     18082     18083     18084     18083     18085
     18084     18085     18086     18087     18086     18088     18087     18088
     18089     18090     18089     18091     18090     18091     18092     18093
     18092     18094     18093     18094     18095     18096     18095     18097
     18096     18097     18098     18099     18098     18100     18099     18100
     18101     18102     18101     18103     18102     18103     18104     18105
     18104     18106     18105     18106     18107     18108     18107     18109
     18108     18109     18110     18111     18110     18112     18111     18112
     18113     18114     18113     18115     18114     18115     18116     18117
     18116     18118     18117     18118     18119     18120     18119     18121
     18120     18121     18122     18123     18122     18124     18123     18124
     18125     18126     18125     18127     18126     18127     18128     18129
     18128     18130     18129     18130     18131     18132     18131     18133
     18132     18133     18134     18135     18134     18136     18135     18136
     18137     18138     18137     18139     18138     18139     18140     18141
     18140     18142     18141     18142     18143     18144     18143     18145
     18144     18145     18146     18147     18146     18148     18147     18148
     18149     18150     18149     18151     18150     18151     18152     18153
     18152     18154     18153     18154     18155     18156     18155     18157
     18156     18157     18158     18159     18158     18160     18159     18160
     18161     18162     18161     18163     18162     18163     18164     18165
     18164     18166     18165     18166     18167     18168     18167     18169
     18168     18169     18170     18171     18170     18172     18171     18172
     18173     18174     18173     18175     18174     18175     18176     18177
     18176     18178     18177     18178     18179     18180     18179     18181
     18180     18181     18182     18183     18182     18184     18183     18184
     18185     18186     18185     18187     18186     18187     18188     18189
     18188     18190     18189     18190     18191     18192     18191     18193
     18192     18193     18194     18195     18194     18196     18195     18196
     18197     18198     18197     18199     18198     18199     18200     18201
     18200     18202     18201     18202     18203     18204     18203     18205
     18204     18205     18206     18207     18206     18208     18207     18208
     18209     18210     18209     18211     18210     18211     18212     18213
     18212     18214     18213     18214     18215     18216     18215     18217
     18216     18217     18218     18219     18218     18220     18219     18220
     18221     18222     18221     18223     18222     18223     18224     18225
     18224     18226     18225     18226     18227     18228     18227     18229
     18228     18229     18230     18231     18230     18232     18231     18232
     18233     18234     18233     18235     18234     18235     18236     18237
     18236     18238     18237     18238     18239     18240     18239     18241
     18240     18241     18242     18243     18242     18244     18243     18244
     18245     18246     18245     18247     18246     18247     18248     18249
     18248     18250     18249     18250     18251     18252     18251     18253
     18252     18253     18254     18255     18254     18256     18255     18256
     18257     18258     18257     18259     18258     18259     18260     18261
     18260     18262     18261     18262     18263     18264     18263     18265
     18264     18265     18266     18267     18266     18268     18267     18268
     18269     18270     18269     18271     18270     18271     18272     18273
     18272     18274     18273     18274     18275     18276     18275     18277
     18276     18277     18278     18279     18278     18280     18279     18280
     18281     18282     18281     18283     18282     18283     18284     18285
     18284     18286     18285     18286     18287     18288     18287     18289
     18288     18289     18290     18291     18290     18292     18291     18292
     18293     18294     18293     18295     18294     18295     18296     18297
     18296     18298     18297     18298     18299     18300     18299     18301
     18300     18301     18302     18303     18302     18304     18303     18304
     18305     18306     18305     18307     18306     18307     18308     18309
     18308     18310     18309     18310     18311     18312     18311     18313
     18312     18313     18314     18315     18314     18316     18315     18316
     18317     18318     18317     18319     18318     18319     18320     18321
     18320     18322     18321     18322     18323     18324     18323     18325
     18324     18325     18326     18327     18326     18328     18327     18328
     18329     18330     18329     18331     18330     18331     18332     18333
     18332     18334     18333     18334     18335     18336     18335     18337
     18336     18337     18338     18339     18338     18340     18339     18340
     18341     18342     18341     18343     18342     18343     18344     18345
     18344     18346     18345     18346     18347     18348     18347     18349
     18348     18349     18350     18351     18350     18352     18351     18352
     18353     18354     18353     18355     18354     18355     18356     18357
     18356     18358     18357     18358     18359     18360     18359     18361
     18360     18361     18362     18363     18362     18364     18363     18364
     18365     18366     18365     18367     18366     18367     18368     18369
     18368     18370     18369     18370     18371     18372     18371     18373
     18372     18373     18374     18375     18374     18376     18375     18376
     18377     18378     18377     18379     18378     18379     18380     18381
     18380     18382     18381     18382     18383     18384     18383     18385
     18384     18385     18386     18387     18386     18388     18387     18388
     18389     18390     18389     18391     18390     18391     18392     18393
     18392     18394     18393     18394     18395     18396     18395     18397
     18396     18397     18398     18399     18398     18400     18399     18400
     18401     18402     18401     18403     18402     18403     18404     18405
     18404     18406     18405     18406     18407     18408     18407     18409
     18408     18409     18410     18411     18410     18412     18411     18412
     18413     18414     18413     18415     18414     18415     18416     18417
     18416     18418     18417     18418     18419     18420     18419     18421
     18420     18421     18422     18423     18422     18424     18423     18424
     18425     18426     18425     18427     18426     18427     18428     18429
     18428     18430     18429     18430     18431     18432     18431     18433
     18432     18433     18434     18435     18434     18436     18435     18436
     18437     18438     18437     18439     18438     18439     18440     18441
     18440     18442     18441     18442     18443     18444     18443     18445
     18444     18445     18446     18447     18446     18448     18447     18448
     18449     18450     18449     18451     18450     18451     18452     18453
     18452     18454     18453     18454     18455     18456     18455     18457
     18456     18457     18458     18459     18458     18460     18459     18460
     18461     18462     18461     18463     18462     18463     18464     18465
     18464     18466     18465     18466     18467     18468     18467     18469
     18468     18469     18470     18471     18470     18472     18471     18472
     18473     18474     18473     18475     18474     18475     18476     18477
     18476     18478     18477     18478     18479     18480     18479     18481
     18480     18481     18482     18483     18482     18484     18483     18484
     18485     18486     18485     18487     18486     18487     18488     18489
     18488     18490     18489     18490     18491     18492     18491     18493
     18492     18493     18494     18495     18494     18496     18495     18496
     18497     18498     18497     18499     18498     18499     18500     18501
     18500     18502     18501     18502     18503     18504     18503     18505
     18504     18505     18506     18507     18506     18508     18507     18508
     18509     18510     18509     18511     18510     18511     18512     18513
     18512     18514     18513     18514     18515     18516     18515     18517
     18516     18517     18518     18519     18518     18520     18519     18520
     18521     18522     18521     18523     18522     18523     18524     18525
     18524     18526     18525     18526     18527     18528     18527     18529
     18528     18529     18530     18531     18530     18532     18531     18532
     18533     18534     18533     18535     18534     18535     18536     18537
     18536     18538     18537     18538     18539     18540     18539     18541
     18540     18541     18542     18543     18542     18544     18543     18544
     18545     18546     18545     18547     18546     18547     18548     18549
     18548     18550     18549     18550     18551     18552     18551     18553
     18552     18553     18554     18555     18554     18556     18555     18556
     18557     18558     18557     18559     18558     18559     18560     18561
     18560     18562     18561     18562     18563     18564     18563     18565
     18564     18565     18566     18567     18566     18568     18567     18568
     18569     18570     18569     18571     18570     18571     18572     18573
     18572     18574     18573     18574     18575     18576     18575     18577
     18576     18577     18578     18579     18578     18580     18579     18580
     18581     18582     18581     18583     18582     18583     18584     18585
     18584     18586     18585     18586     18587     18588     18587     18589
     18588     18589     18590     18591     18590     18592     18591     18592
     18593     18594     18593     18595     18594     18595     18596     18597
     18596     18598     18597     18598     18599     18600     18599     18601
     18600     18601     18602     18603     18602     18604     18603     18604
     18605     18606     18605     18607     18606     18607     18608     18609
     18608     18610     18609     18610     18611     18612     18611     18613
     18612     18613     18614     18615     18614     18616     18615     18616
     18617     18618     18617     18619     18618     18619     18620     18621
     18620     18622     18621     18622     18623     18624     18623     18625
     18624     18625     18626     18627     18626     18628     18627     18628
     18629     18630     18629     18631     18630     18631     18632     18633
     18632     18634     18633     18634     18635     18636     18635     18637
     18636     18637     18638     18639     18638     18640     18639     18640
     18641     18642     18641     18643     18642     18643     18644     18645
     18644     18646     18645     18646     18647     18648     18647     18649
     18648     18649     18650     18651     18650     18652     18651     18652
     18653     18654     18653     18655     18654     18655     18656     18657
     18656     18658     18657     18658     18659     18660     18659     18661
     18660     18661     18662     18663     18662     18664     18663     18664
     18665     18666     18665     18667     18666     18667     18668     18669
     18668     18670     18669     18670     18671     18672     18671     18673
     18672     18673     18674     18675     18674     18676     18675     18676
     18677     18678     18677     18679     18678     18679     18680     18681
     18680     18682     18681     18682     18683     18684     18683     18685
     18684     18685     18686     18687     18686     18688     18687     18688
     18689     18690     18689     18691     18690     18691     18692     18693
     18692     18694     18693     18694     18695     18696     18695     18697
     18696     18697     18698     18699     18698     18700     18699     18700
     18701     18702     18701     18703     18702     18703     18704     18705
     18704     18706     18705     18706     18707     18708     18707     18709
     18708     18709     18710     18711     18710     18712     18711     18712
     18713     18714     18713     18715     18714     18715     18716     18717
     18716     18718     18717     18718     18719     18720     18719     18721
     18720     18721     18722     18723     18722     18724     18723     18724
     18725     18726     18725     18727     18726     18727     18728     18729
     18728     18730     18729     18730     18731     18732     18731     18733
     18732     18733     18734     18735     18734     18736     18735     18736
     18737     18738     18737     18739     18738     18739     18740     18741
     18740     18742     18741     18742     18743     18744     18743     18745
     18744     18745     18746     18747     18746     18748     18747     18748
     18749     18750     18749     18751     18750     18751     18752     18753
     18752     18754     18753     18754     18755     18756     18755     18757
     18756     18757     18758     18759     18758     18760     18759     18760
     18761     18762     18761     18763     18762     18763     18764     18765
     18764     18766     18765     18766     18767     18768     18767     18769
     18768     18769     18770     18771     18770     18772     18771     18772
     18773     18774     18773     18775     18774     18775     18776     18777
     18776     18778     18777     18778     18779     18780     18779     18781
     18780     18781     18782     18783     18782     18784     18783     18784
     18785     18786     18785     18787     18786     18787     18788     18789
     18788     18790     18789     18790     18791     18792     18791     18793
     18792     18793     18794     18795     18794     18796     18795     18796
     18797     18798     18797     18799     18798     18799     18800     18801
     18800     18802     18801     18802     18803     18804     18803     18805
     18804     18805     18806     18807     18806     18808     18807     18808
     18809     18810     18809     18811     18810     18811     18812     18813
     18812     18814     18813     18814     18815     18816     18815     18817
     18816     18817     18818     18819     18818     18820     18819     18820
     18821     18822     18821     18823     18822     18823     18824     18825
     18824     18826     18825     18826     18827     18828     18827     18829
     18828     18829     18830     18831     18830     18832     18831     18832
     18833     18834     18833     18835     18834     18835     18836     18837
     18836     18838     18837     18838     18839     18840     18839     18841
     18840     18841     18842     18843     18842     18844     18843     18844
     18845     18846     18845     18847     18846     18847     18848     18849
     18848     18850     18849     18850     18851     18852     18851     18853
     18852     18853     18854     18855     18854     18856     18855     18856
     18857     18858     18857     18859     18858     18859     18860     18861
     18860     18862     18861     18862     18863     18864     18863     18865
     18864     18865     18866     18867     18866     18868     18867     18868
     18869     18870     18869     18871     18870     18871     18872     18873
     18872     18874     18873     18874     18875     18876     18875     18877
     18876     18877     18878     18879     18878     18880     18879     18880
     18881     18882     18881     18883     18882     18883     18884     18885
     18884     18886     18885     18886     18887     18888     18887     18889
     18888     18889     18890     18891     18890     18892     18891     18892
     18893     18894     18893     18895     18894     18895     18896     18897
     18896     18898     18897     18898     18899     18900     18899     18901
     18900     18901     18902     18903     18902     18904     18903     18904
     18905     18906     18905     18907     18906     18907     18908     18909
     18908     18910     18909     18910     18911     18912     18911     18913
     18912     18913     18914     18915     18914     18916     18915     18916
     18917     18918     18917     18919     18918     18919     18920     18921
     18920     18922     18921     18922     18923     18924     18923     18925
     18924     18925     18926     18927     18926     18928     18927     18928
     18929     18930     18929     18931     18930     18931     18932     18933
     18932     18934     18933     18934     18935     18936     18935     18937
     18936     18937     18938     18939     18938     18940     18939     18940
     18941     18942     18941     18943     18942     18943     18944     18945
     18944     18946     18945     18946     18947     18948     18947     18949
     18948     18949     18950     18951     18950     18952     18951     18952
     18953     18954     18953     18955     18954     18955     18956     18957
     18956     18958     18957     18958     18959     18960     18959     18961
     18960     18961     18962     18963     18962     18964     18963     18964
     18965     18966     18965     18967     18966     18967     18968     18969
     18968     18970     18969     18970     18971     18972     18971     18973
     18972     18973     18974     18975     18974     18976     18975     18976
     18977     18978     18977     18979     18978     18979     18980     18981
     18980     18982     18981     18982     18983     18984     18983     18985
     18984     18985     18986     18987     18986     18988     18987     18988
     18989     18990     18989     18991     18990     18991     18992     18993
     18992     18994     18993     18994     18995     18996     18995     18997
     18996     18997     18998     18999     18998     19000     18999     19000
     19001     19002     19001     19003     19002     19003     19004     19005
     19004     19006     19005     19006     19007     19008     19007     19009
     19008     19009     19010     19011     19010     19012     19011     19012
     19013     19014     19013     19015     19014     19015     19016     19017
     19016     19018     19017     19018     19019     19020     19019     19021
     19020     19021     19022     19023     19022     19024     19023     19024
     19025     19026     19025     19027     19026     19027     19028     19029
     19028     19030     19029     19030     19031     19032     19031     19033
     19032     19033     19034     19035     19034     19036     19035     19036
     19037     19038     19037     19039     19038     19039     19040     19041
     19040     19042     19041     19042     19043     19044     19043     19045
     19044     19045     19046     19047     19046     19048     19047     19048
     19049     19050     19049     19051     19050     19051     19052     19053
     19052     19054     19053     19054     19055     19056     19055     19057
     19056     19057     19058     19059     19058     19060     19059     19060
     19061     19062     19061     19063     19062     19063     19064     19065
     19064     19066     19065     19066     19067     19068     19067     19069
     19068     19069     19070     19071     19070     19072     19071     19072
     19073     19074     19073     19075     19074     19075     19076     19077
     19076     19078     19077     19078     19079     19080     19079     19081
     19080     19081     19082     19083     19082     19084     19083     19084
     19085     19086     19085     19087     19086     19087     19088     19089
     19088     19090     19089     19090     19091     19092     19091     19093
     19092     19093     19094     19095     19094     19096     19095     19096
     19097     19098     19097     19099     19098     19099     19100     19101
     19100     19102     19101     19102     19103     19104     19103     19105
     19104     19105     19106     19107     19106     19108     19107     19108
     19109     19110     19109     19111     19110     19111     19112     19113
     19112     19114     19113     19114     19115     19116     19115     19117
     19116     19117     19118     19119     19118     19120     19119     19120
     19121     19122     19121     19123     19122     19123     19124     19125
     19124     19126     19125     19126     19127     19128     19127     19129
     19128     19129     19130     19131     19130     19132     19131     19132
     19133     19134     19133     19135     19134     19135     19136     19137
     19136     19138     19137     19138     19139     19140     19139     19141
     19140     19141     19142     19143     19142     19144     19143     19144
     19145     19146     19145     19147     19146     19147     19148     19149
     19148     19150     19149     19150     19151     19152     19151     19153
     19152     19153     19154     19155     19154     19156     19155     19156
     19157     19158     19157     19159     19158     19159     19160     19161
     19160     19162     19161     19162     19163     19164     19163     19165
     19164     19165     19166     19167     19166     19168     19167     19168
     19169     19170     19169     19171     19170     19171     19172     19173
     19172     19174     19173     19174     19175     19176     19175     19177
     19176     19177     19178     19179     19178     19180     19179     19180
     19181     19182     19181     19183     19182     19183     19184     19185
     19184     19186     19185     19186     19187     19188     19187     19189
     19188     19189     19190     19191     19190     19192     19191     19192
     19193     19194     19193     19195     19194     19195     19196     19197
     19196     19198     19197     19198     19199     19200     19199     19201
     19200     19201     19202     19203     19202     19204     19203     19204
     19205     19206     19205     19207     19206     19207     19208     19209
     19208     19210     19209     19210     19211     19212     19211     19213
     19212     19213     19214     19215     19214     19216     19215     19216
     19217     19218     19217     19219     19218     19219     19220     19221
     19220     19222     19221     19222     19223     19224     19223     19225
     19224     19225     19226     19227     19226     19228     19227     19228
     19229     19230     19229     19231     19230     19231     19232     19233
     19232     19234     19233     19234     19235     19236     19235     19237
     19236     19237     19238     19239     19238     19240     19239     19240
     19241     19242     19241     19243     19242     19243     19244     19245
     19244     19246     19245     19246     19247     19248     19247     19249
     19248     19249     19250     19251     19250     19252     19251     19252
     19253     19254     19253     19255     19254     19255     19256     19257
     19256     19258     19257     19258     19259     19260     19259     19261
     19260     19261     19262     19263     19262     19264     19263     19264
     19265     19266     19265     19267     19266     19267     19268     19269
     19268     19270     19269     19270     19271     19272     19271     19273
     19272     19273     19274     19275     19274     19276     19275     19276
     19277     19278     19277     19279     19278     19279     19280     19281
     19280     19282     19281     19282     19283     19284     19283     19285
     19284     19285     19286     19287     19286     19288     19287     19288
     19289     19290     19289     19291     19290     19291     19292     19293
     19292     19294     19293     19294     19295     19296     19295     19297
     19296     19297     19298     19299     19298     19300     19299     19300
     19301     19302     19301     19303     19302     19303     19304     19305
     19304     19306     19305     19306     19307     19308     19307     19309
     19308     19309     19310     19311     19310     19312     19311     19312
     19313     19314     19313     19315     19314     19315     19316     19317
     19316     19318     19317     19318     19319     19320     19319     19321
     19320     19321     19322     19323     19322     19324     19323     19324
     19325     19326     19325     19327     19326     19327     19328     19329
     19328     19330     19329     19330     19331     19332     19331     19333
     19332     19333     19334     19335     19334     19336     19335     19336
     19337     19338     19337     19339     19338     19339     19340     19341
     19340     19342     19341     19342     19343     19344     19343     19345
     19344     19345     19346     19347     19346     19348     19347     19348
     19349     19350     19349     19351     19350     19351     19352     19353
     19352     19354     19353     19354     19355     19356     19355     19357
     19356     19357     19358     19359     19358     19360     19359     19360
     19361     19362     19361     19363     19362     19363     19364     19365
     19364     19366     19365     19366     19367     19368     19367     19369
     19368     19369     19370     19371     19370     19372     19371     19372
     19373     19374     19373     19375     19374     19375     19376     19377
     19376     19378     19377     19378     19379     19380     19379     19381
     19380     19381     19382     19383     19382     19384     19383     19384
     19385     19386     19385     19387     19386     19387     19388     19389
     19388     19390     19389     19390     19391     19392     19391     19393
     19392     19393     19394     19395     19394     19396     19395     19396
     19397     19398     19397     19399     19398     19399     19400     19401
     19400     19402     19401     19402     19403     19404     19403     19405
     19404     19405     19406     19407     19406     19408     19407     19408
     19409     19410     19409     19411     19410     19411     19412     19413
     19412     19414     19413     19414     19415     19416     19415     19417
     19416     19417     19418     19419     19418     19420     19419     19420
     19421     19422     19421     19423     19422     19423     19424     19425
     19424     19426     19425     19426     19427     19428     19427     19429
     19428     19429     19430     19431     19430     19432     19431     19432
     19433     19434     19433     19435     19434     19435     19436     19437
     19436     19438     19437     19438     19439     19440     19439     19441
     19440     19441     19442     19443     19442     19444     19443     19444
     19445     19446     19445     19447     19446     19447     19448     19449
     19448     19450     19449     19450     19451     19452     19451     19453
     19452     19453     19454     19455     19454     19456     19455     19456
     19457     19458     19457     19459     19458     19459     19460     19461
     19460     19462     19461     19462     19463     19464     19463     19465
     19464     19465     19466     19467     19466     19468     19467     19468
     19469     19470     19469     19471     19470     19471     19472     19473
     19472     19474     19473     19474     19475     19476     19475     19477
     19476     19477     19478     19479     19478     19480     19479     19480
     19481     19482     19481     19483     19482     19483     19484     19485
     19484     19486     19485     19486     19487     19488     19487     19489
     19488     19489     19490     19491     19490     19492     19491     19492
     19493     19494     19493     19495     19494     19495     19496     19497
     19496     19498     19497     19498     19499     19500     19499     19501
     19500     19501     19502     19503     19502     19504     19503     19504
     19505     19506     19505     19507     19506     19507     19508     19509
     19508     19510     19509     19510     19511     19512     19511     19513
     19512     19513     19514     19515     19514     19516     19515     19516
     19517     19518     19517     19519     19518     19519     19520     19521
     19520     19522     19521     19522     19523     19524     19523     19525
     19524     19525     19526     19527     19526     19528     19527     19528
     19529     19530     19529     19531     19530     19531     19532     19533
     19532     19534     19533     19534     19535     19536     19535     19537
     19536     19537     19538     19539     19538     19540     19539     19540
     19541     19542     19541     19543     19542     19543     19544     19545
     19544     19546     19545     19546     19547     19548     19547     19549
     19548     19549     19550     19551     19550     19552     19551     19552
     19553     19554     19553     19555     19554     19555     19556     19557
     19556     19558     19557     19558     19559     19560     19559     19561
     19560     19561     19562     19563     19562     19564     19563     19564
     19565     19566     19565     19567     19566     19567     19568     19569
     19568     19570     19569     19570     19571     19572     19571     19573
     19572     19573     19574     19575     19574     19576     19575     19576
     19577     19578     19577     19579     19578     19579     19580     19581
     19580     19582     19581     19582     19583     19584     19583     19585
     19584     19585     19586     19587     19586     19588     19587     19588
     19589     19590     19589     19591     19590     19591     19592     19593
     19592     19594     19593     19594     19595     19596     19595     19597
     19596     19597     19598     19599     19598     19600     19599     19600
     19601     19602     19601     19603     19602     19603     19604     19605
     19604     19606     19605     19606     19607     19608     19607     19609
     19608     19609     19610     19611     19610     19612     19611     19612
     19613     19614     19613     19615     19614     19615     19616     19617
     19616     19618     19617     19618     19619     19620     19619     19621
     19620     19621     19622     19623     19622     19624     19623     19624
     19625     19626     19625     19627     19626     19627     19628     19629
     19628     19630     19629     19630     19631     19632     19631     19633
     19632     19633     19634     19635     19634     19636     19635     19636
     19637     19638     19637     19639     19638     19639     19640     19641
     19640     19642     19641     19642     19643     19644     19643     19645
     19644     19645     19646     19647     19646     19648     19647     19648
     19649     19650     19649     19651     19650     19651     19652     19653
     19652     19654     19653     19654     19655     19656     19655     19657
     19656     19657     19658     19659     19658     19660     19659     19660
     19661     19662     19661     19663     19662     19663     19664     19665
     19664     19666     19665     19666     19667     19668     19667     19669
     19668     19669     19670     19671     19670     19672     19671     19672
     19673     19674     19673     19675     19674     19675     19676     19677
     19676     19678     19677     19678     19679     19680     19679     19681
     19680     19681     19682     19683     19682     19684     19683     19684
     19685     19686     19685     19687     19686     19687     19688     19689
     19688     19690     19689     19690     19691     19692     19691     19693
     19692     19693     19694     19695     19694     19696     19695     19696
     19697     19698     19697     19699     19698     19699     19700     19701
     19700     19702     19701     19702     19703     19704     19703     19705
     19704     19705     19706     19707     19706     19708     19707     19708
     19709     19710     19709     19711     19710     19711     19712     19713
     19712     19714     19713     19714     19715     19716     19715     19717
     19716     19717     19718     19719     19718     19720     19719     19720
     19721     19722     19721     19723     19722     19723     19724     19725
     19724     19726     19725     19726     19727     19728     19727     19729
     19728     19729     19730     19731     19730     19732     19731     19732
     19733     19734     19733     19735     19734     19735     19736     19737
     19736     19738     19737     19738     19739     19740     19739     19741
     19740     19741     19742     19743     19742     19744     19743     19744
     19745     19746     19745     19747     19746     19747     19748     19749
     19748     19750     19749     19750     19751     19752     19751     19753
     19752     19753     19754     19755     19754     19756     19755     19756
     19757     19758     19757     19759     19758     19759     19760     19761
     19760     19762     19761     19762     19763     19764     19763     19765
     19764     19765     19766     19767     19766     19768     19767     19768
     19769     19770     19769     19771     19770     19771     19772     19773
     19772     19774     19773     19774     19775     19776     19775     19777
     19776     19777     19778     19779     19778     19780     19779     19780
     19781     19782     19781     19783     19782     19783     19784     19785
     19784     19786     19785     19786     19787     19788     19787     19789
     19788     19789     19790     19791     19790     19792     19791     19792
     19793     19794     19793     19795     19794     19795     19796     19797
     19796     19798     19797     19798     19799     19800     19799     19801
     19800     19801     19802     19803     19802     19804     19803     19804
     19805     19806     19805     19807     19806     19807     19808     19809
     19808     19810     19809     19810     19811     19812     19811     19813
     19812     19813     19814     19815     19814     19816     19815     19816
     19817     19818     19817     19819     19818     19819     19820     19821
     19820     19822     19821     19822     19823     19824     19823     19825
     19824     19825     19826     19827     19826     19828     19827     19828
     19829     19830     19829     19831     19830     19831     19832     19833
     19832     19834     19833     19834     19835     19836     19835     19837
     19836     19837     19838     19839     19838     19840     19839     19840
     19841     19842     19841     19843     19842     19843     19844     19845
     19844     19846     19845     19846     19847     19848     19847     19849
     19848     19849     19850     19851     19850     19852     19851     19852
     19853     19854     19853     19855     19854     19855     19856     19857
     19856     19858     19857     19858     19859     19860     19859     19861
     19860     19861     19862     19863     19862     19864     19863     19864
     19865     19866     19865     19867     19866     19867     19868     19869
     19868     19870     19869     19870     19871     19872     19871     19873
     19872     19873     19874     19875     19874     19876     19875     19876
     19877     19878     19877     19879     19878     19879     19880     19881
     19880     19882     19881     19882     19883     19884     19883     19885
     19884     19885     19886     19887     19886     19888     19887     19888
     19889     19890     19889     19891     19890     19891     19892     19893
     19892     19894     19893     19894     19895     19896     19895     19897
     19896     19897     19898     19899     19898     19900     19899     19900
     19901     19902     19901     19903     19902     19903     19904     19905
     19904     19906     19905     19906     19907     19908     19907     19909
     19908     19909     19910     19911     19910     19912     19911     19912
     19913     19914     19913     19915     19914     19915     19916     19917
     19916     19918     19917     19918     19919     19920     19919     19921
     19920     19921     19922     19923     19922     19924     19923     19924
     19925     19926     19925     19927     19926     19927     19928     19929
     19928     19930     19929     19930     19931     19932     19931     19933
     19932     19933     19934     19935     19934     19936     19935     19936
     19937     19938     19937     19939     19938     19939     19940     19941
     19940     19942     19941     19942     19943     19944     19943     19945
     19944     19945     19946     19947     19946     19948     19947     19948
     19949     19950     19949     19951     19950     19951     19952     19953
     19952     19954     19953     19954     19955     19956     19955     19957
     19956     19957     19958     19959     19958     19960     19959     19960
     19961     19962     19961     19963     19962     19963     19964     19965
     19964     19966     19965     19966     19967     19968     19967     19969
     19968     19969     19970     19971     19970     19972     19971     19972
     19973     19974     19973     19975     19974     19975     19976     19977
     19976     19978     19977     19978     19979     19980     19979     19981
     19980     19981     19982     19983     19982     19984     19983     19984
     19985     19986     19985     19987     19986     19987     19988     19989
     19988     19990     19989     19990     19991     19992     19991     19993
     19992     19993     19994     19995     19994     19996     19995     19996
     19997     19998     19997     19999     19998     19999     20000     20001
     20000     20002     20001     20002     20003     20004     20003     20005
     20004     20005     20006     20007     20006     20008     20007     20008
     20009     20010     20009     20011     20010     20011     20012     20013
     20012     20014     20013     20014     20015     20016     20015     20017
     20016     20017     20018     20019     20018     20020     20019     20020
     20021     20022     20021     20023     20022     20023     20024     20025
     20024     20026     20025     20026     20027     20028     20027     20029
     20028     20029     20030     20031     20030     20032     20031     20032
     20033     20034     20033     20035     20034     20035     20036     20037
     20036     20038     20037     20038     20039     20040     20039     20041
     20040     20041     20042     20043     20042     20044     20043     20044
     20045     20046     20045     20047     20046     20047     20048     20049
     20048     20050     20049     20050     20051     20052     20051     20053
     20052     20053     20054     20055     20054     20056     20055     20056
     20057     20058     20057     20059     20058     20059     20060     20061
     20060     20062     20061     20062     20063     20064     20063     20065
     20064     20065     20066     20067     20066     20068     20067     20068
     20069     20070     20069     20071     20070     20071     20072     20073
     20072     20074     20073     20074     20075     20076     20075     20077
     20076     20077     20078     20079     20078     20080     20079     20080
     20081     20082     20081     20083     20082     20083     20084     20085
     20084     20086     20085     20086     20087     20088     20087     20089
     20088     20089     20090     20091     20090     20092     20091     20092
     20093     20094     20093     20095     20094     20095     20096     20097
     20096     20098     20097     20098     20099     20100     20099     20101
     20100     20101     20102     20103     20102     20104     20103     20104
     20105     20106     20105     20107     20106     20107     20108     20109
     20108     20110     20109     20110     20111     20112     20111     20113
     20112     20113     20114     20115     20114     20116     20115     20116
     20117     20118     20117     20119     20118     20119     20120     20121
     20120     20122     20121     20122     20123     20124     20123     20125
     20124     20125     20126     20127     20126     20128     20127     20128
     20129     20130     20129     20131     20130     20131     20132     20133
     20132     20134     20133     20134     20135     20136     20135     20137
     20136     20137     20138     20139     20138     20140     20139     20140
     20141     20142     20141     20143     20142     20143     20144     20145
     20144     20146     20145     20146     20147     20148     20147     20149
     20148     20149     20150     20151     20150     20152     20151     20152
     20153     20154     20153     20155     20154     20155     20156     20157
     20156     20158     20157     20158     20159     20160     20159     20161
     20160     20161     20162     20163     20162     20164     20163     20164
     20165     20166     20165     20167     20166     20167     20168     20169
     20168     20170     20169     20170     20171     20172     20171     20173
     20172     20173     20174     20175     20174     20176     20175     20176
     20177     20178     20177     20179     20178     20179     20180     20181
     20180     20182     20181     20182     20183     20184     20183     20185
     20184     20185     20186     20187     20186     20188     20187     20188
     20189     20190     20189     20191     20190     20191     20192     20193
     20192     20194     20193     20194     20195     20196     20195     20197
     20196     20197     20198     20199     20198     20200     20199     20200
     20201     20202     20201     20203     20202     20203     20204     20205
     20204     20206     20205     20206     20207     20208     20207     20209
     20208     20209     20210     20211     20210     20212     20211     20212
     20213     20214     20213     20215     20214     20215     20216     20217
     20216     20218     20217     20218     20219     20220     20219     20221
     20220     20221     20222     20223     20222     20224     20223     20224
     20225     20226     20225     20227     20226     20227     20228     20229
     20228     20230     20229     20230     20231     20232     20231     20233
     20232     20233     20234     20235     20234     20236     20235     20236
     20237     20238     20237     20239     20238     20239     20240     20241
     20240     20242     20241     20242     20243     20244     20243     20245
     20244     20245     20246     20247     20246     20248     20247     20248
     20249     20250     20249     20251     20250     20251     20252     20253
     20252     20254     20253     20254     20255     20256     20255     20257
     20256     20257     20258     20259     20258     20260     20259     20260
     20261     20262     20261     20263     20262     20263     20264     20265
     20264     20266     20265     20266     20267     20268     20267     20269
     20268     20269     20270     20271     20270     20272     20271     20272
     20273     20274     20273     20275     20274     20275     20276     20277
     20276     20278     20277     20278     20279     20280     20279     20281
     20280     20281     20282     20283     20282     20284     20283     20284
     20285     20286     20285     20287     20286     20287     20288     20289
     20288     20290     20289     20290     20291     20292     20291     20293
     20292     20293     20294     20295     20294     20296     20295     20296
     20297     20298     20297     20299     20298     20299     20300     20301
     20300     20302     20301     20302     20303     20304     20303     20305
     20304     20305     20306     20307     20306     20308     20307     20308
     20309     20310     20309     20311     20310     20311     20312     20313
     20312     20314     20313     20314     20315     20316     20315     20317
     20316     20317     20318     20319     20318     20320     20319     20320
     20321     20322     20321     20323     20322     20323     20324     20325
     20324     20326     20325     20326     20327     20328     20327     20329
     20328     20329     20330     20331     20330     20332     20331     20332
     20333     20334     20333     20335     20334     20335     20336     20337
     20336     20338     20337     20338     20339     20340     20339     20341
     20340     20341     20342     20343     20342     20344     20343     20344
     20345     20346     20345     20347     20346     20347     20348     20349
     20348     20350     20349     20350     20351     20352     20351     20353
     20352     20353     20354     20355     20354     20356     20355     20356
     20357     20358     20357     20359     20358     20359     20360     20361
     20360     20362     20361     20362     20363     20364     20363     20365
     20364     20365     20366     20367     20366     20368     20367     20368
     20369     20370     20369     20371     20370     20371     20372     20373
     20372     20374     20373     20374     20375     20376     20375     20377
     20376     20377     20378     20379     20378     20380     20379     20380
     20381     20382     20381     20383     20382     20383     20384     20385
     20384     20386     20385     20386     20387     20388     20387     20389
     20388     20389     20390     20391     20390     20392     20391     20392
     20393     20394     20393     20395     20394     20395     20396     20397
     20396     20398     20397     20398     20399     20400     20399     20401
     20400     20401     20402     20403     20402     20404     20403     20404
     20405     20406     20405     20407     20406     20407     20408     20409
     20408     20410     20409     20410     20411     20412     20411     20413
     20412     20413     20414     20415     20414     20416     20415     20416
     20417     20418     20417     20419     20418     20419     20420     20421
     20420     20422     20421     20422     20423     20424     20423     20425
     20424     20425     20426     20427     20426     20428     20427     20428
     20429     20430     20429     20431     20430     20431     20432     20433
     20432     20434     20433     20434     20435     20436     20435     20437
     20436     20437     20438     20439     20438     20440     20439     20440
     20441     20442     20441     20443     20442     20443     20444     20445
     20444     20446     20445     20446     20447     20448     20447     20449
     20448     20449     20450     20451     20450     20452     20451     20452
     20453     20454     20453     20455     20454     20455     20456     20457
     20456     20458     20457     20458     20459     20460     20459     20461
     20460     20461     20462     20463     20462     20464     20463     20464
     20465     20466     20465     20467     20466     20467     20468     20469
     20468     20470     20469     20470     20471     20472     20471     20473
     20472     20473     20474     20475     20474     20476     20475     20476
     20477     20478     20477     20479     20478     20479     20480     20481
     20480     20482     20481     20482     20483     20484     20483     20485
     20484     20485     20486     20487     20486     20488     20487     20488
     20489     20490     20489     20491     20490     20491     20492     20493
     20492     20494     20493     20494     20495     20496     20495     20497
     20496     20497     20498     20499     20498     20500     20499     20500
     20501     20502     20501     20503     20502     20503     20504     20505
     20504     20506     20505     20506     20507     20508     20507     20509
     20508     20509     20510     20511     20510     20512     20511     20512
     20513     20514     20513     20515     20514     20515     20516     20517
     20516     20518     20517     20518     20519     20520     20519     20521
     20520     20521     20522     20523     20522     20524     20523     20524
     20525     20526     20525     20527     20526     20527     20528     20529
     20528     20530     20529     20530     20531     20532     20531     20533
     20532     20533     20534     20535     20534     20536     20535     20536
     20537     20538     20537     20539     20538     20539     20540     20541
     20540     20542     20541     20542     20543     20544     20543     20545
     20544     20545     20546     20547     20546     20548     20547     20548
     20549     20550     20549     20551     20550     20551     20552     20553
     20552     20554     20553     20554     20555     20556     20555     20557
     20556     20557     20558     20559     20558     20560     20559     20560
     20561     20562     20561     20563     20562     20563     20564     20565
     20564     20566     20565     20566     20567     20568     20567     20569
     20568     20569     20570     20571     20570     20572     20571     20572
     20573     20574     20573     20575     20574     20575     20576     20577
     20576     20578     20577     20578     20579     20580     20579     20581
     20580     20581     20582     20583     20582     20584     20583     20584
     20585     20586     20585     20587     20586     20587     20588     20589
     20588     20590     20589     20590     20591     20592     20591     20593
     20592     20593     20594     20595     20594     20596     20595     20596
     20597     20598     20597     20599     20598     20599     20600     20601
     20600     20602     20601     20602     20603     20604     20603     20605
     20604     20605     20606     20607     20606     20608     20607     20608
     20609     20610     20609     20611     20610     20611     20612     20613
     20612     20614     20613     20614     20615     20616     20615     20617
     20616     20617     20618     20619     20618     20620     20619     20620
     20621     20622     20621     20623     20622     20623     20624     20625
     20624     20626     20625     20626     20627     20628     20627     20629
     20628     20629     20630     20631     20630     20632     20631     20632
     20633     20634     20633     20635     20634     20635     20636     20637
     20636     20638     20637     20638     20639     20640     20639     20641
     20640     20641     20642     20643     20642     20644     20643     20644
     20645     20646     20645     20647     20646     20647     20648     20649
     20648     20650     20649     20650     20651     20652     20651     20653
     20652     20653     20654     20655     20654     20656     20655     20656
     20657     20658     20657     20659     20658     20659     20660     20661
     20660     20662     20661     20662     20663     20664     20663     20665
     20664     20665     20666     20667     20666     20668     20667     20668
     20669     20670     20669     20671     20670     20671     20672     20673
     20672     20674     20673     20674     20675     20676     20675     20677
     20676     20677     20678     20679     20678     20680     20679     20680
     20681     20682     20681     20683     20682     20683     20684     20685
     20684     20686     20685     20686     20687     20688     20687     20689
     20688     20689     20690     20691     20690     20692     20691     20692
     20693     20694     20693     20695     20694     20695     20696     20697
     20696     20698     20697     20698     20699     20700     20699     20701
     20700     20701     20702     20703     20702     20704     20703     20704
     20705     20706     20705     20707     20706     20707     20708     20709
     20708     20710     20709     20710     20711     20712     20711     20713
     20712     20713     20714     20715     20714     20716     20715     20716
     20717     20718     20717     20719     20718     20719     20720     20721
     20720     20722     20721     20722     20723     20724     20723     20725
     20724     20725     20726     20727     20726     20728     20727     20728
     20729     20730     20729     20731     20730     20731     20732     20733
     20732     20734     20733     20734     20735     20736     20735     20737
     20736     20737     20738     20739     20738     20740     20739     20740
     20741     20742     20741     20743     20742     20743     20744     20745
     20744     20746     20745     20746     20747     20748     20747     20749
     20748     20749     20750     20751     20750     20752     20751     20752
     20753     20754     20753     20755     20754     20755     20756     20757
     20756     20758     20757     20758     20759     20760     20759     20761
     20760     20761     20762     20763     20762     20764     20763     20764
     20765     20766     20765     20767     20766     20767     20768     20769
     20768     20770     20769     20770     20771     20772     20771     20773
     20772     20773     20774     20775     20774     20776     20775     20776
     20777     20778     20777     20779     20778     20779     20780     20781
     20780     20782     20781     20782     20783     20784     20783     20785
     20784     20785     20786     20787     20786     20788     20787     20788
     20789     20790     20789     20791     20790     20791     20792     20793
     20792     20794     20793     20794     20795     20796     20795     20797
     20796     20797     20798     20799     20798     20800     20799     20800
     20801     20802     20801     20803     20802     20803     20804     20805
     20804     20806     20805     20806     20807     20808     20807     20809
     20808     20809     20810     20811     20810     20812     20811     20812
     20813     20814     20813     20815     20814     20815     20816     20817
     20816     20818     20817     20818     20819     20820     20819     20821
     20820     20821     20822     20823     20822     20824     20823     20824
     20825     20826     20825     20827     20826     20827     20828     20829
     20828     20830     20829     20830     20831     20832     20831     20833
     20832     20833     20834     20835     20834     20836     20835     20836
     20837     20838     20837     20839     20838     20839     20840     20841
     20840     20842     20841     20842     20843     20844     20843     20845
     20844     20845     20846     20847     20846     20848     20847     20848
     20849     20850     20849     20851     20850     20851     20852     20853
     20852     20854     20853     20854     20855     20856     20855     20857
     20856     20857     20858     20859     20858     20860     20859     20860
     20861     20862     20861     20863     20862     20863     20864     20865
     20864     20866     20865     20866     20867     20868     20867     20869
     20868     20869     20870     20871     20870     20872     20871     20872
     20873     20874     20873     20875     20874     20875     20876     20877
     20876     20878     20877     20878     20879     20880     20879     20881
     20880     20881     20882     20883     20882     20884     20883     20884
     20885     20886     20885     20887     20886     20887     20888     20889
     20888     20890     20889     20890     20891     20892     20891     20893
     20892     20893     20894     20895     20894     20896     20895     20896
     20897     20898     20897     20899     20898     20899     20900     20901
     20900     20902     20901     20902     20903     20904     20903     20905
     20904     20905     20906     20907     20906     20908     20907     20908
     20909     20910     20909     20911     20910     20911     20912     20913
     20912     20914     20913     20914     20915     20916     20915     20917
     20916     20917     20918     20919     20918     20920     20919     20920
     20921     20922     20921     20923     20922     20923     20924     20925
     20924     20926     20925     20926     20927     20928     20927     20929
     20928     20929     20930     20931     20930     20932     20931     20932
     20933     20934     20933     20935     20934     20935     20936     20937
     20936     20938     20937     20938     20939     20940     20939     20941
     20940     20941     20942     20943     20942     20944     20943     20944
     20945     20946     20945     20947     20946     20947     20948     20949
     20948     20950     20949     20950     20951     20952     20951     20953
     20952     20953     20954     20955     20954     20956     20955     20956
     20957     20958     20957     20959     20958     20959     20960     20961
     20960     20962     20961     20962     20963     20964     20963     20965
     20964     20965     20966     20967     20966     20968     20967     20968
     20969     20970     20969     20971     20970     20971     20972     20973
     20972     20974     20973     20974     20975     20976     20975     20977
     20976     20977     20978     20979     20978     20980     20979     20980
     20981     20982     20981     20983     20982     20983     20984     20985
     20984     20986     20985     20986     20987     20988     20987     20989
     20988     20989     20990     20991     20990     20992     20991     20992
     20993     20994     20993     20995     20994     20995     20996     20997
     20996     20998     20997     20998     20999     21000     20999     21001
     21000     21001     21002     21003     21002     21004     21003     21004
     21005     21006     21005     21007     21006     21007     21008     21009
     21008     21010     21009     21010     21011     21012     21011     21013
     21012     21013     21014     21015     21014     21016     21015     21016
     21017     21018     21017     21019     21018     21019     21020     21021
     21020     21022     21021     21022     21023     21024     21023     21025
     21024     21025     21026     21027     21026     21028     21027     21028
     21029     21030     21029     21031     21030     21031     21032     21033
     21032     21034     21033     21034     21035     21036     21035     21037
     21036     21037     21038     21039     21038     21040     21039     21040
     21041     21042     21041     21043     21042     21043     21044     21045
     21044     21046     21045     21046     21047     21048     21047     21049
     21048     21049     21050     21051     21050     21052     21051     21052
     21053     21054     21053     21055     21054     21055     21056     21057
     21056     21058     21057     21058     21059     21060     21059     21061
     21060     21061     21062     21063     21062     21064     21063     21064
     21065     21066     21065     21067     21066     21067     21068     21069
     21068     21070     21069     21070     21071     21072     21071     21073
     21072     21073     21074     21075     21074     21076     21075     21076
     21077     21078     21077     21079     21078     21079     21080     21081
     21080     21082     21081     21082     21083     21084     21083     21085
     21084     21085     21086     21087     21086     21088     21087     21088
     21089     21090     21089     21091     21090     21091     21092     21093
     21092     21094     21093     21094     21095     21096     21095     21097
     21096     21097     21098     21099     21098     21100     21099     21100
     21101     21102     21101     21103     21102     21103     21104     21105
     21104     21106     21105     21106     21107     21108     21107     21109
     21108     21109     21110     21111     21110     21112     21111     21112
     21113     21114     21113     21115     21114     21115     21116     21117
     21116     21118     21117     21118     21119     21120     21119     21121
     21120     21121     21122     21123     21122     21124     21123     21124
     21125     21126     21125     21127     21126     21127     21128     21129
     21128     21130     21129     21130     21131     21132     21131     21133
     21132     21133     21134     21135     21134     21136     21135     21136
     21137     21138     21137     21139     21138     21139     21140     21141
     21140     21142     21141     21142     21143     21144     21143     21145
     21144     21145     21146     21147     21146     21148     21147     21148
     21149     21150     21149     21151     21150     21151     21152     21153
     21152     21154     21153     21154     21155     21156     21155     21157
     21156     21157     21158     21159     21158     21160     21159     21160
     21161     21162     21161     21163     21162     21163     21164     21165
     21164     21166     21165     21166     21167     21168     21167     21169
     21168     21169     21170     21171     21170     21172     21171     21172
     21173     21174     21173     21175     21174     21175     21176     21177
     21176     21178     21177     21178     21179     21180     21179     21181
     21180     21181     21182     21183     21182     21184     21183     21184
     21185     21186     21185     21187     21186     21187     21188     21189
     21188     21190     21189     21190     21191     21192     21191     21193
     21192     21193     21194     21195     21194     21196     21195     21196
     21197     21198     21197     21199     21198     21199     21200     21201
     21200     21202     21201     21202     21203     21204     21203     21205
     21204     21205     21206     21207     21206     21208     21207     21208
     21209     21210     21209     21211     21210     21211     21212     21213
     21212     21214     21213     21214     21215     21216     21215     21217
     21216     21217     21218     21219     21218     21220     21219     21220
     21221     21222     21221     21223     21222     21223     21224     21225
     21224     21226     21225     21226     21227     21228     21227     21229
     21228     21229     21230     21231     21230     21232     21231     21232
     21233     21234     21233     21235     21234     21235     21236     21237
     21236     21238     21237     21238     21239     21240     21239     21241
     21240     21241     21242     21243     21242     21244     21243     21244
     21245     21246     21245     21247     21246     21247     21248     21249
     21248     21250     21249     21250     21251     21252     21251     21253
     21252     21253     21254     21255     21254     21256     21255     21256
     21257     21258     21257     21259     21258     21259     21260     21261
     21260     21262     21261     21262     21263     21264     21263     21265
     21264     21265     21266     21267     21266     21268     21267     21268
     21269     21270     21269     21271     21270     21271     21272     21273
     21272     21274     21273     21274     21275     21276     21275     21277
     21276     21277     21278     21279     21278     21280     21279     21280
     21281     21282     21281     21283     21282     21283     21284     21285
     21284     21286     21285     21286     21287     21288     21287     21289
     21288     21289     21290     21291     21290     21292     21291     21292
     21293     21294     21293     21295     21294     21295     21296     21297
     21296     21298     21297     21298     21299     21300     21299     21301
     21300     21301     21302     21303     21302     21304     21303     21304
     21305     21306     21305     21307     21306     21307     21308     21309
     21308     21310     21309     21310     21311     21312     21311     21313
     21312     21313     21314     21315     21314     21316     21315     21316
     21317     21318     21317     21319     21318     21319     21320     21321
     21320     21322     21321     21322     21323     21324     21323     21325
     21324     21325     21326     21327     21326     21328     21327     21328
     21329     21330     21329     21331     21330     21331     21332     21333
     21332     21334     21333     21334     21335     21336     21335     21337
     21336     21337     21338     21339     21338     21340     21339     21340
     21341     21342     21341     21343     21342     21343     21344     21345
     21344     21346     21345     21346     21347     21348     21347     21349
     21348     21349     21350     21351     21350     21352     21351     21352
     21353     21354     21353     21355     21354     21355     21356     21357
     21356     21358     21357     21358     21359     21360     21359     21361
     21360     21361     21362     21363     21362     21364     21363     21364
     21365     21366     21365     21367     21366     21367     21368     21369
     21368     21370     21369     21370     21371     21372     21371     21373
     21372     21373     21374     21375     21374     21376     21375     21376
     21377     21378     21377     21379     21378     21379     21380     21381
     21380     21382     21381     21382     21383     21384     21383     21385
     21384     21385     21386     21387     21386     21388     21387     21388
     21389     21390     21389     21391     21390     21391     21392     21393
     21392     21394     21393     21394     21395     21396     21395     21397
     21396     21397     21398     21399     21398     21400     21399     21400
     21401     21402     21401     21403     21402     21403     21404     21405
     21404     21406     21405     21406     21407     21408     21407     21409
     21408     21409     21410     21411     21410     21412     21411     21412
     21413     21414     21413     21415     21414     21415     21416     21417
     21416     21418     21417     21418     21419     21420     21419     21421
     21420     21421     21422     21423     21422     21424     21423     21424
     21425     21426     21425     21427     21426     21427     21428     21429
     21428     21430     21429     21430     21431     21432     21431     21433
     21432     21433     21434     21435     21434     21436     21435     21436
     21437     21438     21437     21439     21438     21439     21440     21441
     21440     21442     21441     21442     21443     21444     21443     21445
     21444     21445     21446     21447     21446     21448     21447     21448
     21449     21450     21449     21451     21450     21451     21452     21453
     21452     21454     21453     21454     21455     21456     21455     21457
     21456     21457     21458     21459     21458     21460     21459     21460
     21461     21462     21461     21463     21462     21463     21464     21465
     21464     21466     21465     21466     21467     21468     21467     21469
     21468     21469     21470     21471     21470     21472     21471     21472
     21473     21474     21473     21475     21474     21475     21476     21477
     21476     21478     21477     21478     21479     21480     21479     21481
     21480     21481     21482     21483     21482     21484     21483     21484
     21485     21486     21485     21487     21486     21487     21488     21489
     21488     21490     21489     21490     21491     21492     21491     21493
     21492     21493     21494     21495     21494     21496     21495     21496
     21497     21498     21497     21499     21498     21499     21500     21501
     21500     21502     21501     21502     21503     21504     21503     21505
     21504     21505     21506     21507     21506     21508     21507     21508
     21509     21510     21509     21511     21510     21511     21512     21513
     21512     21514     21513     21514     21515     21516     21515     21517
     21516     21517     21518     21519     21518     21520     21519     21520
     21521     21522     21521     21523     21522     21523     21524     21525
     21524     21526     21525     21526     21527     21528     21527     21529
     21528     21529     21530     21531     21530     21532     21531     21532
     21533     21534     21533     21535     21534     21535     21536     21537
     21536     21538     21537     21538     21539     21540     21539     21541
     21540     21541     21542     21543     21542     21544     21543     21544
     21545     21546     21545     21547     21546     21547     21548     21549
     21548     21550     21549     21550     21551     21552     21551     21553
     21552     21553     21554     21555     21554     21556     21555     21556
     21557     21558     21557     21559     21558     21559     21560     21561
     21560     21562     21561     21562     21563     21564     21563     21565
     21564     21565     21566     21567     21566     21568     21567     21568
     21569     21570     21569     21571     21570     21571     21572     21573
     21572     21574     21573     21574     21575     21576     21575     21577
     21576     21577     21578     21579     21578     21580     21579     21580
     21581     21582     21581     21583     21582     21583     21584     21585
     21584     21586     21585     21586     21587     21588     21587     21589
     21588     21589     21590     21591     21590     21592     21591     21592
     21593     21594     21593     21595     21594     21595     21596     21597
     21596     21598     21597     21598     21599     21600     21599     21601
     21600     21601     21602     21603     21602     21604     21603     21604
     21605     21606     21605     21607     21606     21607     21608     21609
     21608     21610     21609     21610     21611     21612     21611     21613
     21612     21613     21614     21615     21614     21616     21615     21616
     21617     21618     21617     21619     21618     21619     21620     21621
     21620     21622     21621     21622     21623     21624     21623     21625
     21624     21625     21626     21627     21626     21628     21627     21628
     21629     21630     21629     21631     21630     21631     21632     21633
     21632     21634     21633     21634     21635     21636     21635     21637
     21636     21637     21638     21639     21638     21640     21639     21640
     21641     21642     21641     21643     21642     21643     21644     21645
     21644     21646     21645     21646     21647     21648     21647     21649
     21648     21649     21650     21651     21650     21652     21651     21652
     21653     21654     21653     21655     21654     21655     21656     21657
     21656     21658     21657     21658     21659     21660     21659     21661
     21660     21661     21662     21663     21662     21664     21663     21664
     21665     21666     21665     21667     21666     21667     21668     21669
     21668     21670     21669     21670     21671     21672     21671     21673
     21672     21673     21674     21675     21674     21676     21675     21676
     21677     21678     21677     21679     21678     21679     21680     21681
     21680     21682     21681     21682     21683     21684     21683     21685
     21684     21685     21686     21687     21686     21688     21687     21688
     21689     21690     21689     21691     21690     21691     21692     21693
     21692     21694     21693     21694     21695     21696     21695     21697
     21696     21697     21698     21699     21698     21700     21699     21700
     21701     21702     21701     21703     21702     21703     21704     21705
     21704     21706     21705     21706     21707     21708     21707     21709
     21708     21709     21710     21711     21710     21712     21711     21712
     21713     21714     21713     21715     21714     21715     21716     21717
     21716     21718     21717     21718     21719     21720     21719     21721
     21720     21721     21722     21723     21722     21724     21723     21724
     21725     21726     21725     21727     21726     21727     21728     21729
     21728     21730     21729     21730     21731     21732     21731     21733
     21732     21733     21734     21735     21734     21736     21735     21736
     21737     21738     21737     21739     21738     21739     21740     21741
     21740     21742     21741     21742     21743     21744     21743     21745
     21744     21745     21746     21747     21746     21748     21747     21748
     21749     21750     21749     21751     21750     21751     21752     21753
     21752     21754     21753     21754     21755     21756     21755     21757
     21756     21757     21758     21759     21758     21760     21759     21760
     21761     21762     21761     21763     21762     21763     21764     21765
     21764     21766     21765     21766     21767     21768     21767     21769
     21768     21769     21770     21771     21770     21772     21771     21772
     21773     21774     21773     21775     21774     21775     21776     21777
     21776     21778     21777     21778     21779     21780     21779     21781
     21780     21781     21782     21783     21782     21784     21783     21784
     21785     21786     21785     21787     21786     21787     21788     21789
     21788     21790     21789     21790     21791     21792     21791     21793
     21792     21793     21794     21795     21794     21796     21795     21796
     21797     21798     21797     21799     21798     21799     21800     21801
     21800     21802     21801     21802     21803     21804     21803     21805
     21804     21805     21806     21807     21806     21808     21807     21808
     21809     21810     21809     21811     21810     21811     21812     21813
     21812     21814     21813     21814     21815     21816     21815     21817
     21816     21817     21818     21819     21818     21820     21819     21820
     21821     21822     21821     21823     21822     21823     21824     21825
     21824     21826     21825     21826     21827     21828     21827     21829
     21828     21829     21830     21831     21830     21832     21831     21832
     21833     21834     21833     21835     21834     21835     21836     21837
     21836     21838     21837     21838     21839     21840     21839     21841
     21840     21841     21842     21843     21842     21844     21843     21844
     21845     21846     21845     21847     21846     21847     21848     21849
     21848     21850     21849     21850     21851     21852     21851     21853
     21852     21853     21854     21855     21854     21856     21855     21856
     21857     21858     21857     21859     21858     21859     21860     21861
     21860     21862     21861     21862     21863     21864     21863     21865
     21864     21865     21866     21867     21866     21868     21867     21868
     21869     21870     21869     21871     21870     21871     21872     21873
     21872     21874     21873     21874     21875     21876     21875     21877
     21876     21877     21878     21879     21878     21880     21879     21880
     21881     21882     21881     21883     21882     21883     21884     21885
     21884     21886     21885     21886     21887     21888     21887     21889
     21888     21889     21890     21891     21890     21892     21891     21892
     21893     21894     21893     21895     21894     21895     21896     21897
     21896     21898     21897     21898     21899     21900     21899     21901
     21900     21901     21902     21903     21902     21904     21903     21904
     21905     21906     21905     21907     21906     21907     21908     21909
     21908     21910     21909     21910     21911     21912     21911     21913
     21912     21913     21914     21915     21914     21916     21915     21916
     21917     21918     21917     21919     21918     21919     21920     21921
     21920     21922     21921     21922     21923     21924     21923     21925
     21924     21925     21926     21927     21926     21928     21927     21928
     21929     21930     21929     21931     21930     21931     21932     21933
     21932     21934     21933     21934     21935     21936     21935     21937
     21936     21937     21938     21939     21938     21940     21939     21940
     21941     21942     21941     21943     21942     21943     21944     21945
     21944     21946     21945     21946     21947     21948     21947     21949
     21948     21949     21950     21951     21950     21952     21951     21952
     21953     21954     21953     21955     21954     21955     21956     21957
     21956     21958     21957     21958     21959     21960     21959     21961
     21960     21961     21962     21963     21962     21964     21963     21964
     21965     21966     21965     21967     21966     21967     21968     21969
     21968     21970     21969     21970     21971     21972     21971     21973
     21972     21973     21974     21975     21974     21976     21975     21976
     21977     21978     21977     21979     21978     21979     21980     21981
     21980     21982     21981     21982     21983     21984     21983     21985
     21984     21985     21986     21987     21986     21988     21987     21988
     21989     21990     21989     21991     21990     21991     21992     21993
     21992     21994     21993     21994     21995     21996     21995     21997
     21996     21997     21998     21999     21998     22000     21999     22000
     22001     22002     22001     22003     22002     22003     22004     22005
     22004     22006     22005     22006     22007     22008     22007     22009
     22008     22009     22010     22011     22010     22012     22011     22012
     22013     22014     22013     22015     22014     22015     22016     22017
     22016     22018     22017     22018     22019     22020     22019     22021
     22020     22021     22022     22023     22022     22024     22023     22024
     22025     22026     22025     22027     22026     22027     22028     22029
     22028     22030     22029     22030     22031     22032     22031     22033
     22032     22033     22034     22035     22034     22036     22035     22036
     22037     22038     22037     22039     22038     22039     22040     22041
     22040     22042     22041     22042     22043     22044     22043     22045
     22044     22045     22046     22047     22046     22048     22047     22048
     22049     22050     22049     22051     22050     22051     22052     22053
     22052     22054     22053     22054     22055     22056     22055     22057
     22056     22057     22058     22059     22058     22060     22059     22060
     22061     22062     22061     22063     22062     22063     22064     22065
     22064     22066     22065     22066     22067     22068     22067     22069
     22068     22069     22070     22071     22070     22072     22071     22072
     22073     22074     22073     22075     22074     22075     22076     22077
     22076     22078     22077     22078     22079     22080     22079     22081
     22080     22081     22082     22083     22082     22084     22083     22084
     22085     22086     22085     22087     22086     22087     22088     22089
     22088     22090     22089     22090     22091     22092     22091     22093
     22092     22093     22094     22095     22094     22096     22095     22096
     22097     22098     22097     22099     22098     22099     22100     22101
     22100     22102     22101     22102     22103     22104     22103     22105
     22104     22105     22106     22107     22106     22108     22107     22108
     22109     22110     22109     22111     22110     22111     22112     22113
     22112     22114     22113     22114     22115     22116     22115     22117
     22116     22117     22118     22119     22118     22120     22119     22120
     22121     22122     22121     22123     22122     22123     22124     22125
     22124     22126     22125     22126     22127     22128     22127     22129
     22128     22129     22130     22131     22130     22132     22131     22132
     22133     22134     22133     22135     22134     22135     22136     22137
     22136     22138     22137     22138     22139     22140     22139     22141
     22140     22141     22142     22143     22142     22144     22143     22144
     22145     22146     22145     22147     22146     22147     22148     22149
     22148     22150     22149     22150     22151     22152     22151     22153
     22152     22153     22154     22155     22154     22156     22155     22156
     22157     22158     22157     22159     22158     22159     22160     22161
     22160     22162     22161     22162     22163     22164     22163     22165
     22164     22165     22166     22167     22166     22168     22167     22168
     22169     22170     22169     22171     22170     22171     22172     22173
     22172     22174     22173     22174     22175     22176     22175     22177
     22176     22177     22178     22179     22178     22180     22179     22180
     22181     22182     22181     22183     22182     22183     22184     22185
     22184     22186     22185     22186     22187     22188     22187     22189
     22188     22189     22190     22191     22190     22192     22191     22192
     22193     22194     22193     22195     22194     22195     22196     22197
     22196     22198     22197     22198     22199     22200     22199     22201
     22200     22201     22202     22203     22202     22204     22203     22204
     22205     22206     22205     22207     22206     22207     22208     22209
     22208     22210     22209     22210     22211     22212     22211     22213
     22212     22213     22214     22215     22214     22216     22215     22216
     22217     22218     22217     22219     22218     22219     22220     22221
     22220     22222     22221     22222     22223     22224     22223     22225
     22224     22225     22226     22227     22226     22228     22227     22228
     22229     22230     22229     22231     22230     22231     22232     22233
     22232     22234     22233     22234     22235     22236     22235     22237
     22236     22237     22238     22239     22238     22240     22239     22240
     22241     22242     22241     22243     22242     22243     22244     22245
     22244     22246     22245     22246     22247     22248     22247     22249
     22248     22249     22250     22251     22250     22252     22251     22252
     22253     22254     22253     22255     22254     22255     22256     22257
     22256     22258     22257     22258     22259     22260     22259     22261
     22260     22261     22262     22263     22262     22264     22263     22264
     22265     22266     22265     22267     22266     22267     22268     22269
     22268     22270     22269     22270     22271     22272     22271     22273
     22272     22273     22274     22275     22274     22276     22275     22276
     22277     22278     22277     22279     22278     22279     22280     22281
     22280     22282     22281     22282     22283     22284     22283     22285
     22284     22285     22286     22287     22286     22288     22287     22288
     22289     22290     22289     22291     22290     22291     22292     22293
     22292     22294     22293     22294     22295     22296     22295     22297
     22296     22297     22298     22299     22298     22300     22299     22300
     22301     22302     22301     22303     22302     22303     22304     22305
     22304     22306     22305     22306     22307     22308     22307     22309
     22308     22309     22310     22311     22310     22312     22311     22312
     22313     22314     22313     22315     22314     22315     22316     22317
     22316     22318     22317     22318     22319     22320     22319     22321
     22320     22321     22322     22323     22322     22324     22323     22324
     22325     22326     22325     22327     22326     22327     22328     22329
     22328     22330     22329     22330     22331     22332     22331     22333
     22332     22333     22334     22335     22334     22336     22335     22336
     22337     22338     22337     22339     22338     22339     22340     22341
     22340     22342     22341     22342     22343     22344     22343     22345
     22344     22345     22346     22347     22346     22348     22347     22348
     22349     22350     22349     22351     22350     22351     22352     22353
     22352     22354     22353     22354     22355     22356     22355     22357
     22356     22357     22358     22359     22358     22360     22359     22360
     22361     22362     22361     22363     22362     22363     22364     22365
     22364     22366     22365     22366     22367     22368     22367     22369
     22368     22369     22370     22371     22370     22372     22371     22372
     22373     22374     22373     22375     22374     22375     22376     22377
     22376     22378     22377     22378     22379     22380     22379     22381
     22380     22381     22382     22383     22382     22384     22383     22384
     22385     22386     22385     22387     22386     22387     22388     22389
     22388     22390     22389     22390     22391     22392     22391     22393
     22392     22393     22394     22395     22394     22396     22395     22396
     22397     22398     22397     22399     22398     22399     22400     22401
     22400     22402     22401     22402     22403     22404     22403     22405
     22404     22405     22406     22407     22406     22408     22407     22408
     22409     22410     22409     22411     22410     22411     22412     22413
     22412     22414     22413     22414     22415     22416     22415     22417
     22416     22417     22418     22419     22418     22420     22419     22420
     22421     22422     22421     22423     22422     22423     22424     22425
     22424     22426     22425     22426     22427     22428     22427     22429
     22428     22429     22430     22431     22430     22432     22431     22432
     22433     22434     22433     22435     22434     22435     22436     22437
     22436     22438     22437     22438     22439     22440     22439     22441
     22440     22441     22442     22443     22442     22444     22443     22444
     22445     22446     22445     22447     22446     22447     22448     22449
     22448     22450     22449     22450     22451     22452     22451     22453
     22452     22453     22454     22455     22454     22456     22455     22456
     22457     22458     22457     22459     22458     22459     22460     22461
     22460     22462     22461     22462     22463     22464     22463     22465
     22464     22465     22466     22467     22466     22468     22467     22468
     22469     22470     22469     22471     22470     22471     22472     22473
     22472     22474     22473     22474     22475     22476     22475     22477
     22476     22477     22478     22479     22478     22480     22479     22480
     22481     22482     22481     22483     22482     22483     22484     22485
     22484     22486     22485     22486     22487     22488     22487     22489
     22488     22489     22490     22491     22490     22492     22491     22492
     22493     22494     22493     22495     22494     22495     22496     22497
     22496     22498     22497     22498     22499     22500     22499     22501
     22500     22501     22502     22503     22502     22504     22503     22504
     22505     22506     22505     22507     22506     22507     22508     22509
     22508     22510     22509     22510     22511     22512     22511     22513
     22512     22513     22514     22515     22514     22516     22515     22516
     22517     22518     22517     22519     22518     22519     22520     22521
     22520     22522     22521     22522     22523     22524     22523     22525
     22524     22525     22526     22527     22526     22528     22527     22528
     22529     22530     22529     22531     22530     22531     22532     22533
     22532     22534     22533     22534     22535     22536     22535     22537
     22536     22537     22538     22539     22538     22540     22539     22540
     22541     22542     22541     22543     22542     22543     22544     22545
     22544     22546     22545     22546     22547     22548     22547     22549
     22548     22549     22550     22551     22550     22552     22551     22552
     22553     22554     22553     22555     22554     22555     22556     22557
     22556     22558     22557     22558     22559     22560     22559     22561
     22560     22561     22562     22563     22562     22564     22563     22564
     22565     22566     22565     22567     22566     22567     22568     22569
     22568     22570     22569     22570     22571     22572     22571     22573
     22572     22573     22574     22575     22574     22576     22575     22576
     22577     22578     22577     22579     22578     22579     22580     22581
     22580     22582     22581     22582     22583     22584     22583     22585
     22584     22585     22586     22587     22586     22588     22587     22588
     22589     22590     22589     22591     22590     22591     22592     22593
     22592     22594     22593     22594     22595     22596     22595     22597
     22596     22597     22598     22599     22598     22600     22599     22600
     22601     22602     22601     22603     22602     22603     22604     22605
     22604     22606     22605     22606     22607     22608     22607     22609
     22608     22609     22610     22611     22610     22612     22611     22612
     22613     22614     22613     22615     22614     22615     22616     22617
     22616     22618     22617     22618     22619     22620     22619     22621
     22620     22621     22622     22623     22622     22624     22623     22624
     22625     22626     22625     22627     22626     22627     22628     22629
     22628     22630     22629     22630     22631     22632     22631     22633
     22632     22633     22634     22635     22634     22636     22635     22636
     22637     22638     22637     22639     22638     22639     22640     22641
     22640     22642     22641     22642     22643     22644     22643     22645
     22644     22645     22646     22647     22646     22648     22647     22648
     22649     22650     22649     22651     22650     22651     22652     22653
     22652     22654     22653     22654     22655     22656     22655     22657
     22656     22657     22658     22659     22658     22660     22659     22660
     22661     22662     22661     22663     22662     22663     22664     22665
     22664     22666     22665     22666     22667     22668     22667     22669
     22668     22669     22670     22671     22670     22672     22671     22672
     22673     22674     22673     22675     22674     22675     22676     22677
     22676     22678     22677     22678     22679     22680     22679     22681
     22680     22681     22682     22683     22682     22684     22683     22684
     22685     22686     22685     22687     22686     22687     22688     22689
     22688     22690     22689     22690     22691     22692     22691     22693
     22692     22693     22694     22695     22694     22696     22695     22696
     22697     22698     22697     22699     22698     22699     22700     22701
     22700     22702     22701     22702     22703     22704     22703     22705
     22704     22705     22706     22707     22706     22708     22707     22708
     22709     22710     22709     22711     22710     22711     22712     22713
     22712     22714     22713     22714     22715     22716     22715     22717
     22716     22717     22718     22719     22718     22720     22719     22720
     22721     22722     22721     22723     22722     22723     22724     22725
     22724     22726     22725     22726     22727     22728     22727     22729
     22728     22729     22730     22731     22730     22732     22731     22732
     22733     22734     22733     22735     22734     22735     22736     22737
     22736     22738     22737     22738     22739     22740     22739     22741
     22740     22741     22742     22743     22742     22744     22743     22744
     22745     22746     22745     22747     22746     22747     22748     22749
     22748     22750     22749     22750     22751     22752     22751     22753
     22752     22753     22754     22755     22754     22756     22755     22756
     22757     22758     22757     22759     22758     22759     22760     22761
     22760     22762     22761     22762     22763     22764     22763     22765
     22764     22765     22766     22767     22766     22768     22767     22768
     22769     22770     22769     22771     22770     22771     22772     22773
     22772     22774     22773     22774     22775     22776     22775     22777
     22776     22777     22778     22779     22778     22780     22779     22780
     22781     22782     22781     22783     22782     22783     22784     22785
     22784     22786     22785     22786     22787     22788     22787     22789
     22788     22789     22790     22791     22790     22792     22791     22792
     22793     22794     22793     22795     22794     22795     22796     22797
     22796     22798     22797     22798     22799     22800     22799     22801
     22800     22801     22802     22803     22802     22804     22803     22804
     22805     22806     22805     22807     22806     22807     22808     22809
     22808     22810     22809     22810     22811     22812     22811     22813
     22812     22813     22814     22815     22814     22816     22815     22816
     22817     22818     22817     22819     22818     22819     22820     22821
     22820     22822     22821     22822     22823     22824     22823     22825
     22824     22825     22826     22827     22826     22828     22827     22828
     22829     22830     22829     22831     22830     22831     22832     22833
     22832     22834     22833     22834     22835     22836     22835     22837
     22836     22837     22838     22839     22838     22840     22839     22840
     22841     22842     22841     22843     22842     22843     22844     22845
     22844     22846     22845     22846     22847     22848     22847     22849
     22848     22849     22850     22851     22850     22852     22851     22852
     22853     22854     22853     22855     22854     22855     22856     22857
     22856     22858     22857     22858     22859     22860     22859     22861
     22860     22861     22862     22863     22862     22864     22863     22864
     22865     22866     22865     22867     22866     22867     22868     22869
     22868     22870     22869     22870     22871     22872     22871     22873
     22872     22873     22874     22875     22874     22876     22875     22876
     22877     22878     22877     22879     22878     22879     22880     22881
     22880     22882     22881     22882     22883     22884     22883     22885
     22884     22885     22886     22887     22886     22888     22887     22888
     22889     22890     22889     22891     22890     22891     22892     22893
     22892     22894     22893     22894     22895     22896     22895     22897
     22896     22897     22898     22899     22898     22900     22899     22900
     22901     22902     22901     22903     22902     22903     22904     22905
     22904     22906     22905     22906     22907     22908     22907     22909
     22908     22909     22910     22911     22910     22912     22911     22912
     22913     22914     22913     22915     22914     22915     22916     22917
     22916     22918     22917     22918     22919     22920     22919     22921
     22920     22921     22922     22923     22922     22924     22923     22924
     22925     22926     22925     22927     22926     22927     22928     22929
     22928     22930     22929     22930     22931     22932     22931     22933
     22932     22933     22934     22935     22934     22936     22935     22936
     22937     22938     22937     22939     22938     22939     22940     22941
     22940     22942     22941     22942     22943     22944     22943     22945
     22944     22945     22946     22947     22946     22948     22947     22948
     22949     22950     22949     22951     22950     22951     22952     22953
     22952     22954     22953     22954     22955     22956     22955     22957
     22956     22957     22958     22959     22958     22960     22959     22960
     22961     22962     22961     22963     22962     22963     22964     22965
     22964     22966     22965     22966     22967     22968     22967     22969
     22968     22969     22970     22971     22970     22972     22971     22972
     22973     22974     22973     22975     22974     22975     22976     22977
     22976     22978     22977     22978     22979     22980     22979     22981
     22980     22981     22982     22983     22982     22984     22983     22984
     22985     22986     22985     22987     22986     22987     22988     22989
     22988     22990     22989     22990     22991     22992     22991     22993
     22992     22993     22994     22995     22994     22996     22995     22996
     22997     22998     22997     22999     22998     22999     23000     23001
     23000     23002     23001     23002     23003     23004     23003     23005
     23004     23005     23006     23007     23006     23008     23007     23008
     23009     23010     23009     23011     23010     23011     23012     23013
     23012     23014     23013     23014     23015     23016     23015     23017
     23016     23017     23018     23019     23018     23020     23019     23020
     23021     23022     23021     23023     23022     23023     23024     23025
     23024     23026     23025     23026     23027     23028     23027     23029
     23028     23029     23030     23031     23030     23032     23031     23032
     23033     23034     23033     23035     23034     23035     23036     23037
     23036     23038     23037     23038     23039     23040     23039     23041
     23040     23041     23042     23043     23042     23044     23043     23044
     23045     23046     23045     23047     23046     23047     23048     23049
     23048     23050     23049     23050     23051     23052     23051     23053
     23052     23053     23054     23055     23054     23056     23055     23056
     23057     23058     23057     23059     23058     23059     23060     23061
     23060     23062     23061     23062     23063     23064     23063     23065
     23064     23065     23066     23067     23066     23068     23067     23068
     23069     23070     23069     23071     23070     23071     23072     23073
     23072     23074     23073     23074     23075     23076     23075     23077
     23076     23077     23078     23079     23078     23080     23079     23080
     23081     23082     23081     23083     23082     23083     23084     23085
     23084     23086     23085     23086     23087     23088     23087     23089
     23088     23089     23090     23091     23090     23092     23091     23092
     23093     23094     23093     23095     23094     23095     23096     23097
     23096     23098     23097     23098     23099     23100     23099     23101
     23100     23101     23102     23103     23102     23104     23103     23104
     23105     23106     23105     23107     23106     23107     23108     23109
     23108     23110     23109     23110     23111     23112     23111     23113
     23112     23113     23114     23115     23114     23116     23115     23116
     23117     23118     23117     23119     23118     23119     23120     23121
     23120     23122     23121     23122     23123     23124     23123     23125
     23124     23125     23126     23127     23126     23128     23127     23128
     23129     23130     23129     23131     23130     23131     23132     23133
     23132     23134     23133     23134     23135     23136     23135     23137
     23136     23137     23138     23139     23138     23140     23139     23140
     23141     23142     23141     23143     23142     23143     23144     23145
     23144     23146     23145     23146     23147     23148     23147     23149
     23148     23149     23150     23151     23150     23152     23151     23152
     23153     23154     23153     23155     23154     23155     23156     23157
     23156     23158     23157     23158     23159     23160     23159     23161
     23160     23161     23162     23163     23162     23164     23163     23164
     23165     23166     23165     23167     23166     23167     23168     23169
     23168     23170     23169     23170     23171     23172     23171     23173
     23172     23173     23174     23175     23174     23176     23175     23176
     23177     23178     23177     23179     23178     23179     23180     23181
     23180     23182     23181     23182     23183     23184     23183     23185
     23184     23185     23186     23187     23186     23188     23187     23188
     23189     23190     23189     23191     23190     23191     23192     23193
     23192     23194     23193     23194     23195     23196     23195     23197
     23196     23197     23198     23199     23198     23200     23199     23200
     23201     23202     23201     23203     23202     23203     23204     23205
     23204     23206     23205     23206     23207     23208     23207     23209
     23208     23209     23210     23211     23210     23212     23211     23212
     23213     23214     23213     23215     23214     23215     23216     23217
     23216     23218     23217     23218     23219     23220     23219     23221
     23220     23221     23222     23223     23222     23224     23223     23224
     23225     23226     23225     23227     23226     23227     23228     23229
     23228     23230     23229     23230     23231     23232     23231     23233
     23232     23233     23234     23235     23234     23236     23235     23236
     23237     23238     23237     23239     23238     23239     23240     23241
     23240     23242     23241     23242     23243     23244     23243     23245
     23244     23245     23246     23247     23246     23248     23247     23248
     23249     23250     23249     23251     23250     23251     23252     23253
     23252     23254     23253     23254     23255     23256     23255     23257
     23256     23257     23258     23259     23258     23260     23259     23260
     23261     23262     23261     23263     23262     23263     23264     23265
     23264     23266     23265     23266     23267     23268     23267     23269
     23268     23269     23270     23271     23270     23272     23271     23272
     23273     23274     23273     23275     23274     23275     23276     23277
     23276     23278     23277     23278     23279     23280     23279     23281
     23280     23281     23282     23283     23282     23284     23283     23284
     23285     23286     23285     23287     23286     23287     23288     23289
     23288     23290     23289     23290     23291     23292     23291     23293
     23292     23293     23294     23295     23294     23296     23295     23296
     23297     23298     23297     23299     23298     23299     23300     23301
     23300     23302     23301     23302     23303     23304     23303     23305
     23304     23305     23306     23307     23306     23308     23307     23308
     23309     23310     23309     23311     23310     23311     23312     23313
     23312     23314     23313     23314     23315     23316     23315     23317
     23316     23317     23318     23319     23318     23320     23319     23320
     23321     23322     23321     23323     23322     23323     23324     23325
     23324     23326     23325     23326     23327     23328     23327     23329
     23328     23329     23330     23331     23330     23332     23331     23332
     23333     23334     23333     23335     23334     23335     23336     23337
     23336     23338     23337     23338     23339     23340     23339     23341
     23340     23341     23342     23343     23342     23344     23343     23344
     23345     23346     23345     23347     23346     23347     23348     23349
     23348     23350     23349     23350     23351     23352     23351     23353
     23352     23353     23354     23355     23354     23356     23355     23356
     23357     23358     23357     23359     23358     23359     23360     23361
     23360     23362     23361     23362     23363     23364     23363     23365
     23364     23365     23366     23367     23366     23368     23367     23368
     23369     23370     23369     23371     23370     23371     23372     23373
     23372     23374     23373     23374     23375     23376     23375     23377
     23376     23377     23378     23379     23378     23380     23379     23380
     23381     23382     23381     23383     23382     23383     23384     23385
     23384     23386     23385     23386     23387     23388     23387     23389
     23388     23389     23390     23391     23390     23392     23391     23392
     23393     23394     23393     23395     23394     23395     23396     23397
     23396     23398     23397     23398     23399     23400     23399     23401
     23400     23401     23402     23403     23402     23404     23403     23404
     23405     23406     23405     23407     23406     23407     23408     23409
     23408     23410     23409     23410     23411     23412     23411     23413
     23412     23413     23414     23415     23414     23416     23415     23416
     23417     23418     23417     23419     23418     23419     23420     23421
     23420     23422     23421     23422     23423     23424     23423     23425
     23424     23425     23426     23427     23426     23428     23427     23428
     23429     23430     23429     23431     23430     23431     23432     23433
     23432     23434     23433     23434     23435     23436     23435     23437
     23436     23437     23438     23439     23438     23440     23439     23440
     23441     23442     23441     23443     23442     23443     23444     23445
     23444     23446     23445     23446     23447     23448     23447     23449
     23448     23449     23450     23451     23450     23452     23451     23452
     23453     23454     23453     23455     23454     23455     23456     23457
     23456     23458     23457     23458     23459     23460     23459     23461
     23460     23461     23462     23463     23462     23464     23463     23464
     23465     23466     23465     23467     23466     23467     23468     23469
     23468     23470     23469     23470     23471     23472     23471     23473
     23472     23473     23474     23475     23474     23476     23475     23476
     23477     23478     23477     23479     23478     23479     23480     23481
     23480     23482     23481     23482     23483     23484     23483     23485
     23484     23485     23486     23487     23486     23488     23487     23488
     23489     23490     23489     23491     23490     23491     23492     23493
     23492     23494     23493     23494     23495     23496     23495     23497
     23496     23497     23498     23499     23498     23500     23499     23500
     23501     23502     23501     23503     23502     23503     23504     23505
     23504     23506     23505     23506     23507     23508     23507     23509
     23508     23509     23510     23511     23510     23512     23511     23512
     23513     23514     23513     23515     23514     23515     23516     23517
     23516     23518     23517     23518     23519     23520     23519     23521
     23520     23521     23522     23523     23522     23524     23523     23524
     23525     23526     23525     23527     23526     23527     23528     23529
     23528     23530     23529     23530     23531     23532     23531     23533
     23532     23533     23534     23535     23534     23536     23535     23536
     23537     23538     23537     23539     23538     23539     23540     23541
     23540     23542     23541     23542     23543     23544     23543     23545
     23544     23545     23546     23547     23546     23548     23547     23548
     23549     23550     23549     23551     23550     23551     23552     23553
     23552     23554     23553     23554     23555     23556     23555     23557
     23556     23557     23558     23559     23558     23560     23559     23560
     23561     23562     23561     23563     23562     23563     23564     23565
     23564     23566     23565     23566     23567     23568     23567     23569
     23568     23569     23570     23571     23570     23572     23571     23572
     23573     23574     23573     23575     23574     23575     23576     23577
     23576     23578     23577     23578     23579     23580     23579     23581
     23580     23581     23582     23583     23582     23584     23583     23584
     23585     23586     23585     23587     23586     23587     23588     23589
     23588     23590     23589     23590     23591     23592     23591     23593
     23592     23593     23594     23595     23594     23596     23595     23596
     23597     23598     23597     23599     23598     23599     23600     23601
     23600     23602     23601     23602     23603     23604     23603     23605
     23604     23605     23606     23607     23606     23608     23607     23608
     23609     23610     23609     23611     23610     23611     23612     23613
     23612     23614     23613     23614     23615     23616     23615     23617
     23616     23617     23618     23619     23618     23620     23619     23620
     23621     23622     23621     23623     23622     23623     23624     23625
     23624     23626     23625     23626     23627     23628     23627     23629
     23628     23629     23630     23631     23630     23632     23631     23632
     23633     23634     23633     23635     23634     23635     23636     23637
     23636     23638     23637     23638     23639     23640     23639     23641
     23640     23641     23642     23643     23642     23644     23643     23644
     23645     23646     23645     23647     23646     23647     23648     23649
     23648     23650     23649     23650     23651     23652     23651     23653
     23652     23653     23654     23655     23654     23656     23655     23656
     23657     23658     23657     23659     23658     23659     23660     23661
     23660     23662     23661     23662     23663     23664     23663     23665
     23664     23665     23666     23667     23666     23668     23667     23668
     23669     23670     23669     23671     23670     23671     23672     23673
     23672     23674     23673     23674     23675     23676     23675     23677
     23676     23677     23678     23679     23678     23680     23679     23680

     21120 !NTHETA: angles
         2         1         6         2         1        10         2         1        14
         6         1        10         6         1        14        10         1        14
         1         2         3         1         2         4         1         2         5
         3         2         4         3         2         5         4         2         5
         1         6         7         1         6         8         1         6         9
         7         6         8         7         6         9         8         6         9
         1        10        11         1        10        12         1        10        13
        11        10        12        11        10        13        12        10        13
         1        14        15         1        14        16         1        14        17
        15        14        16        15        14        17        16        14        17
        14        17        18        14        17        19        14        17        24
        18        17        19        18        17        24        19        17        24
        21        20        22        21        20        23        21        20        24
        22        20        23        22        20        24        23        20        24
        20        23        25        17        24        20        23        25        26
        23        25        27        23        25        28        26        25        27
        26        25        28        27        25        28        25        28        29
        25        28        30        25        28        36        29        28        30
        29        28        36        30        28        36        28        30        31
        30        31        32        30        31        33        32        31        33
        31        33        34        31        33        35        31        33        45
        34        33        35        34        33        45        35        33        45
        28        36        37        28        36        38        28        36        39
        37        36        38        37        36        39        38        36        39
        36        39        40        39        40        41        39        40        42
        41        40        42        40        42        43        40        42        44
        40        42        88        43        42        44        43        42        88
        44        42        88        33        45        46        33        45        47
        33        45        48        46        45        47        46        45        48
        47        45        48        45        48        49        45        48        50
        45        48        51        49        48        50        49        48        51
        50        48        51        48        51        52        48        51        53
        48        51        54        52        51        53        52        51        54
        53        51        54        51        54        55        51        54        56
        51        54        57        55        54        56        55        54        57
        56        54        57        54        57        58        54        57        59
        54        57        60        58        57        59        58        57        60
        59        57        60        57        60        61        57        60        62
        57        60        63        61        60        62        61        60        63
        62        60        63        60        63        64        60        63        65
        60        63        66        64        63        65        64        63        66
        65        63        66        63        66        67        63        66        68
        63        66        69        67        66        68        67        66        69
        68        66        69        66        69        70        66        69        71
        66        69        72        70        69        71        70        69        72
        71        69        72        69        72        73        69        72        74
        69        72        75        73        72        74        73        72        75
        74        72        75        72        75        76        72        75        77
        72        75        78        76        75        77        76        75        78
        77        75        78        75        78        79        75        78        80
        75        78        81        79        78        80        79        78        81
        80        78        81        78        81        82        78        81        83
        78        81        84        82        81        83        82        81        84
        83        81        84        81        84        85        81        84        86
        81        84        87        85        84        86        85        84        87
        86        84        87        42        88        89        42        88        90
        42        88        91        89        88        90        89        88        91
        90        88        91        88        91        92        88        91        93
        88        91        94        92        91        93        92        91        94
        93        91        94        91        94        95        91        94        96
        91        94        97        95        94        96        95        94        97
        96        94        97        94        97        98        94        97        99
        94        97       100        98        97        99        98        97       100
        99        97       100        97       100       101        97       100       102
        97       100       103       101       100       102       101       100       103
       102       100       103       100       103       104       100       103       105
       100       103       106       104       103       105       104       103       106
       105       103       106       103       106       107       103       106       108
       103       106       109       107       106       108       107       106       109
       108       106       109       106       109       110       106       109       111
       106       109       112       110       109       111       110       109       112
       111       109       112       109       112       113       109       112       114
       109       112       115       113       112       114       113       112       115
       114       112       115       112       115       116       112       115       117
       112       115       118       116       115       117       116       115       118
       117       115       118       115       118       119       115       118       120
       115       118       121       119       118       120       119       118       121
       120       118       121       118       121       122       118       121       123
       118       121       124       122       121       123       122       121       124
       123       121       124       121       124       125       121       124       126
       121       124       127       125       124       126       125       124       127
       126       124       127       124       127       128       124       127       129
       124       127       130       128       127       129       128       127       130
       129       127       130       132       131       136       132       131       140
       132       131       144       136       131       140       136       131       144
       140       131       144       131       132       133       131       132       134
       131       132       135       133       132       134       133       132       135
       134       132       135       131       136       137       131       136       138
       131       136       139       137       136       138       137       136       139
       138       136       139       131       140       141       131       140       142
       131       140       143       141       140       142       141       140       143
       142       140       143       131       144       145       131       144       146
       131       144       147       145       144       146       145       144       147
       146       144       147       144       147       148       144       147       149
       144       147       154       148       147       149       148       147       154
       149       147       154       151       150       152       151       150       153
       151       150       154       152       150       153       152       150       154
       153       150       154       150       153       155       147       154       150
       153       155       156       153       155       157       153       155       158
       156       155       157       156       155       158       157       155       158
       155       158       159       155       158       160       155       158       166
       159       158       160       159       158       166       160       158       166
       158       160       161       160       161       162       160       161       163
       162       161       163       161       163       164       161       163       165
       161       163       175       164       163       165       164       163       175
       165       163       175       158       166       167       158       166       168
       158       166       169       167       166       168       167       166       169
       168       166       169       166       169       170       169       170       171
       169       170       172       171       170       172       170       172       173
       170       172       174       170       172       218       173       172       174
       173       172       218       174       172       218       163       175       176
       163       175       177       163       175       178       176       175       177
       176       175       178       177       175       178       175       178       179
       175       178       180       175       178       181       179       178       180
       179       178       181       180       178       181       178       181       182
       178       181       183       178       181       184       182       181       183
       182       181       184       183       181       184       181       184       185
       181       184       186       181       184       187       185       184       186
       185       184       187       186       184       187       184       187       188
       184       187       189       184       187       190       188       187       189
       188       187       190       189       187       190       187       190       191
       187       190       192       187       190       193       191       190       192
       191       190       193       192       190       193       190       193       194
       190       193       195       190       193       196       194       193       195
       194       193       196       195       193       196       193       196       197
       193       196       198       193       196       199       197       196       198
       197       196       199       198       196       199       196       199       200
       196       199       201       196       199       202       200       199       201
       200       199       202       201       199       202       199       202       203
       199       202       204       199       202       205       203       202       204
       203       202       205       204       202       205       202       205       206
       202       205       207       202       205       208       206       205       207
       206       205       208       207       205       208       205       208       209
       205       208       210       205       208       211       209       208       210
       209       208       211       210       208       211       208       211       212
       208       211       213       208       211       214       212       211       213
       212       211       214       213       211       214       211       214       215
       211       214       216       211       214       217       215       214       216
       215       214       217       216       214       217       172       218       219
       172       218       220       172       218       221       219       218       220
       219       218       221       220       218       221       218       221       222
       218       221       223       218       221       224       222       221       223
       222       221       224       223       221       224       221       224       225
       221       224       226       221       224       227       225       224       226
       225       224       227       226       224       227       224       227       228
       224       227       229       224       227       230       228       227       229
       228       227       230       229       227       230       227       230       231
       227       230       232       227       230       233       231       230       232
       231       230       233       232       230       233       230       233       234
       230       233       235       230       233       236       234       233       235
       234       233       236       235       233       236       233       236       237
       233       236       238       233       236       239       237       236       238
       237       236       239       238       236       239       236       239       240
       236       239       241       236       239       242       240       239       241
       240       239       242       241       239       242       239       242       243
       239       242       244       239       242       245       243       242       244
       243       242       245       244       242       245       242       245       246
       242       245       247       242       245       248       246       245       247
       246       245       248       247       245       248       245       248       249
       245       248       250       245       248       251       249       248       250
       249       248       251       250       248       251       248       251       252
       248       251       253       248       251       254       252       251       253
       252       251       254       253       251       254       251       254       255
       251       254       256       251       254       257       255       254       256
       255       254       257       256       254       257       254       257       258
       254       257       259       254       257       260       258       257       259
       258       257       260       259       257       260       262       261       266
       262       261       270       262       261       274       266       261       270
       266       261       274       270       261       274       261       262       263
       261       262       264       261       262       265       263       262       264
       263       262       265       264       262       265       261       266       267
       261       266       268       261       266       269       267       266       268
       267       266       269       268       266       269       261       270       271
       261       270       272       261       270       273       271       270       272
       271       270       273       272       270       273       261       274       275
       261       274       276       261       274       277       275       274       276
       275       274       277       276       274       277       274       277       278
       274       277       279       274       277       284       278       277       279
       278       277       284       279       277       284       281       280       282
       281       280       283       281       280       284       282       280       283
       282       280       284       283       280       284       280       283       285
       277       284       280       283       285       286       283       285       287
       283       285       288       286       285       287       286       285       288
       287       285       288       285       288       289       285       288       290
       285       288       296       289       288       290       289       288       296
       290       288       296       288       290       291       290       291       292
       290       291       293       292       291       293       291       293       294
       291       293       295       291       293       305       294       293       295
       294       293       305       295       293       305       288       296       297
       288       296       298       288       296       299       297       296       298
       297       296       299       298       296       299       296       299       300
       299       300       301       299       300       302       301       300       302
       300       302       303       300       302       304       300       302       348
       303       302       304       303       302       348       304       302       348
       293       305       306       293       305       307       293       305       308
       306       305       307       306       305       308       307       305       308
       305       308       309       305       308       310       305       308       311
       309       308       310       309       308       311       310       308       311
       308       311       312       308       311       313       308       311       314
       312       311       313       312       311       314       313       311       314
       311       314       315       311       314       316       311       314       317
       315       314       316       315       314       317       316       314       317
       314       317       318       314       317       319       314       317       320
       318       317       319       318       317       320       319       317       320
       317       320       321       317       320       322       317       320       323
       321       320       322       321       320       323       322       320       323
       320       323       324       320       323       325       320       323       326
       324       323       325       324       323       326       325       323       326
       323       326       327       323       326       328       323       326       329
       327       326       328       327       326       329       328       326       329
       326       329       330       326       329       331       326       329       332
       330       329       331       330       329       332       331       329       332
       329       332       333       329       332       334       329       332       335
       333       332       334       333       332       335       334       332       335
       332       335       336       332       335       337       332       335       338
       336       335       337       336       335       338       337       335       338
       335       338       339       335       338       340       335       338       341
       339       338       340       339       338       341       340       338       341
       338       341       342       338       341       343       338       341       344
       342       341       343       342       341       344       343       341       344
       341       344       345       341       344       346       341       344       347
       345       344       346       345       344       347       346       344       347
       302       348       349       302       348       350       302       348       351
       349       348       350       349       348       351       350       348       351
       348       351       352       348       351       353       348       351       354
       352       351       353       352       351       354       353       351       354
       351       354       355       351       354       356       351       354       357
       355       354       356       355       354       357       356       354       357
       354       357       358       354       357       359       354       357       360
       358       357       359       358       357       360       359       357       360
       357       360       361       357       360       362       357       360       363
       361       360       362       361       360       363       362       360       363
       360       363       364       360       363       365       360       363       366
       364       363       365       364       363       366       365       363       366
       363       366       367       363       366       368       363       366       369
       367       366       368       367       366       369       368       366       369
       366       369       370       366       369       371       366       369       372
       370       369       371       370       369       372       371       369       372
       369       372       373       369       372       374       369       372       375
       373       372       374       373       372       375       374       372       375
       372       375       376       372       375       377       372       375       378
       376       375       377       376       375       378       377       375       378
       375       378       379       375       378       380       375       378       381
       379       378       380       379       378       381       380       378       381
       378       381       382       378       381       383       378       381       384
       382       381       383       382       381       384       383       381       384
       381       384       385       381       384       386       381       384       387
       385       384       386       385       384       387       386       384       387
       384       387       388       384       387       389       384       387       390
       388       387       389       388       387       390       389       387       390
       392       391       396       392       391       400       392       391       404
       396       391       400       396       391       404       400       391       404
       391       392       393       391       392       394       391       392       395
       393       392       394       393       392       395       394       392       395
       391       396       397       391       396       398       391       396       399
       397       396       398       397       396       399       398       396       399
       391       400       401       391       400       402       391       400       403
       401       400       402       401       400       403       402       400       403
       391       404       405       391       404       406       391       404       407
       405       404       406       405       404       407       406       404       407
       404       407       408       404       407       409       404       407       414
       408       407       409       408       407       414       409       407       414
       411       410       412       411       410       413       411       410       414
       412       410       413       412       410       414       413       410       414
       410       413       415       407       414       410       413       415       416
       413       415       417       413       415       418       416       415       417
       416       415       418       417       415       418       415       418       419
       415       418       420       415       418       426       419       418       420
       419       418       426       420       418       426       418       420       421
       420       421       422       420       421       423       422       421       423
       421       423       424       421       423       425       421       423       435
       424       423       425       424       423       435       425       423       435
       418       426       427       418       426       428       418       426       429
       427       426       428       427       426       429       428       426       429
       426       429       430       429       430       431       429       430       432
       431       430       432       430       432       433       430       432       434
       430       432       478       433       432       434       433       432       478
       434       432       478       423       435       436       423       435       437
       423       435       438       436       435       437       436       435       438
       437       435       438       435       438       439       435       438       440
       435       438       441       439       438       440       439       438       441
       440       438       441       438       441       442       438       441       443
       438       441       444       442       441       443       442       441       444
       443       441       444       441       444       445       441       444       446
       441       444       447       445       444       446       445       444       447
       446       444       447       444       447       448       444       447       449
       444       447       450       448       447       449       448       447       450
       449       447       450       447       450       451       447       450       452
       447       450       453       451       450       452       451       450       453
       452       450       453       450       453       454       450       453       455
       450       453       456       454       453       455       454       453       456
       455       453       456       453       456       457       453       456       458
       453       456       459       457       456       458       457       456       459
       458       456       459       456       459       460       456       459       461
       456       459       462       460       459       461       460       459       462
       461       459       462       459       462       463       459       462       464
       459       462       465       463       462       464       463       462       465
       464       462       465       462       465       466       462       465       467
       462       465       468       466       465       467       466       465       468
       467       465       468       465       468       469       465       468       470
       465       468       471       469       468       470       469       468       471
       470       468       471       468       471       472       468       471       473
       468       471       474       472       471       473       472       471       474
       473       471       474       471       474       475       471       474       476
       471       474       477       475       474       476       475       474       477
       476       474       477       432       478       479       432       478       480
       432       478       481       479       478       480       479       478       481
       480       478       481       478       481       482       478       481       483
       478       481       484       482       481       483       482       481       484
       483       481       484       481       484       485       481       484       486
       481       484       487       485       484       486       485       484       487
       486       484       487       484       487       488       484       487       489
       484       487       490       488       487       489       488       487       490
       489       487       490       487       490       491       487       490       492
       487       490       493       491       490       492       491       490       493
       492       490       493       490       493       494       490       493       495
       490       493       496       494       493       495       494       493       496
       495       493       496       493       496       497       493       496       498
       493       496       499       497       496       498       497       496       499
       498       496       499       496       499       500       496       499       501
       496       499       502       500       499       501       500       499       502
       501       499       502       499       502       503       499       502       504
       499       502       505       503       502       504       503       502       505
       504       502       505       502       505       506       502       505       507
       502       505       508       506       505       507       506       505       508
       507       505       508       505       508       509       505       508       510
       505       508       511       509       508       510       509       508       511
       510       508       511       508       511       512       508       511       513
       508       511       514       512       511       513       512       511       514
       513       511       514       511       514       515       511       514       516
       511       514       517       515       514       516       515       514       517
       516       514       517       514       517       518       514       517       519
       514       517       520       518       517       519       518       517       520
       519       517       520       522       521       526       522       521       530
       522       521       534       526       521       530       526       521       534
       530       521       534       521       522       523       521       522       524
       521       522       525       523       522       524       523       522       525
       524       522       525       521       526       527       521       526       528
       521       526       529       527       526       528       527       526       529
       528       526       529       521       530       531       521       530       532
       521       530       533       531       530       532       531       530       533
       532       530       533       521       534       535       521       534       536
       521       534       537       535       534       536       535       534       537
       536       534       537       534       537       538       534       537       539
       534       537       544       538       537       539       538       537       544
       539       537       544       541       540       542       541       540       543
       541       540       544       542       540       543       542       540       544
       543       540       544       540       543       545       537       544       540
       543       545       546       543       545       547       543       545       548
       546       545       547       546       545       548       547       545       548
       545       548       549       545       548       550       545       548       556
       549       548       550       549       548       556       550       548       556
       548       550       551       550       551       552       550       551       553
       552       551       553       551       553       554       551       553       555
       551       553       565       554       553       555       554       553       565
       555       553       565       548       556       557       548       556       558
       548       556       559       557       556       558       557       556       559
       558       556       559       556       559       560       559       560       561
       559       560       562       561       560       562       560       562       563
       560       562       564       560       562       608       563       562       564
       563       562       608       564       562       608       553       565       566
       553       565       567       553       565       568       566       565       567
       566       565       568       567       565       568       565       568       569
       565       568       570       565       568       571       569       568       570
       569       568       571       570       568       571       568       571       572
       568       571       573       568       571       574       572       571       573
       572       571       574       573       571       574       571       574       575
       571       574       576       571       574       577       575       574       576
       575       574       577       576       574       577       574       577       578
       574       577       579       574       577       580       578       577       579
       578       577       580       579       577       580       577       580       581
       577       580       582       577       580       583       581       580       582
       581       580       583       582       580       583       580       583       584
       580       583       585       580       583       586       584       583       585
       584       583       586       585       583       586       583       586       587
       583       586       588       583       586       589       587       586       588
       587       586       589       588       586       589       586       589       590
       586       589       591       586       589       592       590       589       591
       590       589       592       591       589       592       589       592       593
       589       592       594       589       592       595       593       592       594
       593       592       595       594       592       595       592       595       596
       592       595       597       592       595       598       596       595       597
       596       595       598       597       595       598       595       598       599
       595       598       600       595       598       601       599       598       600
       599       598       601       600       598       601       598       601       602
       598       601       603       598       601       604       602       601       603
       602       601       604       603       601       604       601       604       605
       601       604       606       601       604       607       605       604       606
       605       604       607       606       604       607       562       608       609
       562       608       610       562       608       611       609       608       610
       609       608       611       610       608       611       608       611       612
       608       611       613       608       611       614       612       611       613
       612       611       614       613       611       614       611       614       615
       611       614       616       611       614       617       615       614       616
       615       614       617       616       614       617       614       617       618
       614       617       619       614       617       620       618       617       619
       618       617       620       619       617       620       617       620       621
       617       620       622       617       620       623       621       620       622
       621       620       623       622       620       623       620       623       624
       620       623       625       620       623       626       624       623       625
       624       623       626       625       623       626       623       626       627
       623       626       628       623       626       629       627       626       628
       627       626       629       628       626       629       626       629       630
       626       629       631       626       629       632       630       629       631
       630       629       632       631       629       632       629       632       633
       629       632       634       629       632       635       633       632       634
       633       632       635       634       632       635       632       635       636
       632       635       637       632       635       638       636       635       637
       636       635       638       637       635       638       635       638       639
       635       638       640       635       638       641       639       638       640
       639       638       641       640       638       641       638       641       642
       638       641       643       638       641       644       642       641       643
       642       641       644       643       641       644       641       644       645
       641       644       646       641       644       647       645       644       646
       645       644       647       646       644       647       644       647       648
       644       647       649       644       647       650       648       647       649
       648       647       650       649       647       650       652       651       656
       652       651       660       652       651       664       656       651       660
       656       651       664       660       651       664       651       652       653
       651       652       654       651       652       655       653       652       654
       653       652       655       654       652       655       651       656       657
       651       656       658       651       656       659       657       656       658
       657       656       659       658       656       659       651       660       661
       651       660       662       651       660       663       661       660       662
       661       660       663       662       660       663       651       664       665
       651       664       666       651       664       667       665       664       666
       665       664       667       666       664       667       664       667       668
       664       667       669       664       667       674       668       667       669
       668       667       674       669       667       674       671       670       672
       671       670       673       671       670       674       672       670       673
       672       670       674       673       670       674       670       673       675
       667       674       670       673       675       676       673       675       677
       673       675       678       676       675       677       676       675       678
       677       675       678       675       678       679       675       678       680
       675       678       686       679       678       680       679       678       686
       680       678       686       678       680       681       680       681       682
       680       681       683       682       681       683       681       683       684
       681       683       685       681       683       695       684       683       685
       684       683       695       685       683       695       678       686       687
       678       686       688       678       686       689       687       686       688
       687       686       689       688       686       689       686       689       690
       689       690       691       689       690       692       691       690       692
       690       692       693       690       692       694       690       692       738
       693       692       694       693       692       738       694       692       738
       683       695       696       683       695       697       683       695       698
       696       695       697       696       695       698       697       695       698
       695       698       699       695       698       700       695       698       701
       699       698       700       699       698       701       700       698       701
       698       701       702       698       701       703       698       701       704
       702       701       703       702       701       704       703       701       704
       701       704       705       701       704       706       701       704       707
       705       704       706       705       704       707       706       704       707
       704       707       708       704       707       709       704       707       710
       708       707       709       708       707       710       709       707       710
       707       710       711       707       710       712       707       710       713
       711       710       712       711       710       713       712       710       713
       710       713       714       710       713       715       710       713       716
       714       713       715       714       713       716       715       713       716
       713       716       717       713       716       718       713       716       719
       717       716       718       717       716       719       718       716       719
       716       719       720       716       719       721       716       719       722
       720       719       721       720       719       722       721       719       722
       719       722       723       719       722       724       719       722       725
       723       722       724       723       722       725       724       722       725
       722       725       726       722       725       727       722       725       728
       726       725       727       726       725       728       727       725       728
       725       728       729       725       728       730       725       728       731
       729       728       730       729       728       731       730       728       731
       728       731       732       728       731       733       728       731       734
       732       731       733       732       731       734       733       731       734
       731       734       735       731       734       736       731       734       737
       735       734       736       735       734       737       736       734       737
       692       738       739       692       738       740       692       738       741
       739       738       740       739       738       741       740       738       741
       738       741       742       738       741       743       738       741       744
       742       741       743       742       741       744       743       741       744
       741       744       745       741       744       746       741       744       747
       745       744       746       745       744       747       746       744       747
       744       747       748       744       747       749       744       747       750
       748       747       749       748       747       750       749       747       750
       747       750       751       747       750       752       747       750       753
       751       750       752       751       750       753       752       750       753
       750       753       754       750       753       755       750       753       756
       754       753       755       754       753       756       755       753       756
       753       756       757       753       756       758       753       756       759
       757       756       758       757       756       759       758       756       759
       756       759       760       756       759       761       756       759       762
       760       759       761       760       759       762       761       759       762
       759       762       763       759       762       764       759       762       765
       763       762       764       763       762       765       764       762       765
       762       765       766       762       765       767       762       765       768
       766       765       767       766       765       768       767       765       768
       765       768       769       765       768       770       765       768       771
       769       768       770       769       768       771       770       768       771
       768       771       772       768       771       773       768       771       774
       772       771       773       772       771       774       773       771       774
       771       774       775       771       774       776       771       774       777
       775       774       776       775       774       777       776       774       777
       774       777       778       774       777       779       774       777       780
       778       777       779       778       777       780       779       777       780
       782       781       786       782       781       790       782       781       794
       786       781       790       786       781       794       790       781       794
       781       782       783       781       782       784       781       782       785
       783       782       784       783       782       785       784       782       785
       781       786       787       781       786       788       781       786       789
       787       786       788       787       786       789       788       786       789
       781       790       791       781       790       792       781       790       793
       791       790       792       791       790       793       792       790       793
       781       794       795       781       794       796       781       794       797
       795       794       796       795       794       797       796       794       797
       794       797       798       794       797       799       794       797       804
       798       797       799       798       797       804       799       797       804
       801       800       802       801       800       803       801       800       804
       802       800       803       802       800       804       803       800       804
       800       803       805       797       804       800       803       805       806
       803       805       807       803       805       808       806       805       807
       806       805       808       807       805       808       805       808       809
       805       808       810       805       808       816       809       808       810
       809       808       816       810       808       816       808       810       811
       810       811       812       810       811       813       812       811       813
       811       813       814       811       813       815       811       813       825
       814       813       815       814       813       825       815       813       825
       808       816       817       808       816       818       808       816       819
       817       816       818       817       816       819       818       816       819
       816       819       820       819       820       821       819       820       822
       821       820       822       820       822       823       820       822       824
       820       822       868       823       822       824       823       822       868
       824       822       868       813       825       826       813       825       827
       813       825       828       826       825       827       826       825       828
       827       825       828       825       828       829       825       828       830
       825       828       831       829       828       830       829       828       831
       830       828       831       828       831       832       828       831       833
       828       831       834       832       831       833       832       831       834
       833       831       834       831       834       835       831       834       836
       831       834       837       835       834       836       835       834       837
       836       834       837       834       837       838       834       837       839
       834       837       840       838       837       839       838       837       840
       839       837       840       837       840       841       837       840       842
       837       840       843       841       840       842       841       840       843
       842       840       843       840       843       844       840       843       845
       840       843       846       844       843       845       844       843       846
       845       843       846       843       846       847       843       846       848
       843       846       849       847       846       848       847       846       849
       848       846       849       846       849       850       846       849       851
       846       849       852       850       849       851       850       849       852
       851       849       852       849       852       853       849       852       854
       849       852       855       853       852       854       853       852       855
       854       852       855       852       855       856       852       855       857
       852       855       858       856       855       857       856       855       858
       857       855       858       855       858       859       855       858       860
       855       858       861       859       858       860       859       858       861
       860       858       861       858       861       862       858       861       863
       858       861       864       862       861       863       862       861       864
       863       861       864       861       864       865       861       864       866
       861       864       867       865       864       866       865       864       867
       866       864       867       822       868       869       822       868       870
       822       868       871       869       868       870       869       868       871
       870       868       871       868       871       872       868       871       873
       868       871       874       872       871       873       872       871       874
       873       871       874       871       874       875       871       874       876
       871       874       877       875       874       876       875       874       877
       876       874       877       874       877       878       874       877       879
       874       877       880       878       877       879       878       877       880
       879       877       880       877       880       881       877       880       882
       877       880       883       881       880       882       881       880       883
       882       880       883       880       883       884       880       883       885
       880       883       886       884       883       885       884       883       886
       885       883       886       883       886       887       883       886       888
       883       886       889       887       886       888       887       886       889
       888       886       889       886       889       890       886       889       891
       886       889       892       890       889       891       890       889       892
       891       889       892       889       892       893       889       892       894
       889       892       895       893       892       894       893       892       895
       894       892       895       892       895       896       892       895       897
       892       895       898       896       895       897       896       895       898
       897       895       898       895       898       899       895       898       900
       895       898       901       899       898       900       899       898       901
       900       898       901       898       901       902       898       901       903
       898       901       904       902       901       903       902       901       904
       903       901       904       901       904       905       901       904       906
       901       904       907       905       904       906       905       904       907
       906       904       907       904       907       908       904       907       909
       904       907       910       908       907       909       908       907       910
       909       907       910       912       911       916       912       911       920
       912       911       924       916       911       920       916       911       924
       920       911       924       911       912       913       911       912       914
       911       912       915       913       912       914       913       912       915
       914       912       915       911       916       917       911       916       918
       911       916       919       917       916       918       917       916       919
       918       916       919       911       920       921       911       920       922
       911       920       923       921       920       922       921       920       923
       922       920       923       911       924       925       911       924       926
       911       924       927       925       924       926       925       924       927
       926       924       927       924       927       928       924       927       929
       924       927       934       928       927       929       928       927       934
       929       927       934       931       930       932       931       930       933
       931       930       934       932       930       933       932       930       934
       933       930       934       930       933       935       927       934       930
       933       935       936       933       935       937       933       935       938
       936       935       937       936       935       938       937       935       938
       935       938       939       935       938       940       935       938       946
       939       938       940       939       938       946       940       938       946
       938       940       941       940       941       942       940       941       943
       942       941       943       941       943       944       941       943       945
       941       943       955       944       943       945       944       943       955
       945       943       955       938       946       947       938       946       948
       938       946       949       947       946       948       947       946       949
       948       946       949       946       949       950       949       950       951
       949       950       952       951       950       952       950       952       953
       950       952       954       950       952       998       953       952       954
       953       952       998       954       952       998       943       955       956
       943       955       957       943       955       958       956       955       957
       956       955       958       957       955       958       955       958       959
       955       958       960       955       958       961       959       958       960
       959       958       961       960       958       961       958       961       962
       958       961       963       958       961       964       962       961       963
       962       961       964       963       961       964       961       964       965
       961       964       966       961       964       967       965       964       966
       965       964       967       966       964       967       964       967       968
       964       967       969       964       967       970       968       967       969
       968       967       970       969       967       970       967       970       971
       967       970       972       967       970       973       971       970       972
       971       970       973       972       970       973       970       973       974
       970       973       975       970       973       976       974       973       975
       974       973       976       975       973       976       973       976       977
       973       976       978       973       976       979       977       976       978
       977       976       979       978       976       979       976       979       980
       976       979       981       976       979       982       980       979       981
       980       979       982       981       979       982       979       982       983
       979       982       984       979       982       985       983       982       984
       983       982       985       984       982       985       982       985       986
       982       985       987       982       985       988       986       985       987
       986       985       988       987       985       988       985       988       989
       985       988       990       985       988       991       989       988       990
       989       988       991       990       988       991       988       991       992
       988       991       993       988       991       994       992       991       993
       992       991       994       993       991       994       991       994       995
       991       994       996       991       994       997       995       994       996
       995       994       997       996       994       997       952       998       999
       952       998      1000       952       998      1001       999       998      1000
       999       998      1001      1000       998      1001       998      1001      1002
       998      1001      1003       998      1001      1004      1002      1001      1003
      1002      1001      1004      1003      1001      1004      1001      1004      1005
      1001      1004      1006      1001      1004      1007      1005      1004      1006
      1005      1004      1007      1006      1004      1007      1004      1007      1008
      1004      1007      1009      1004      1007      1010      1008      1007      1009
      1008      1007      1010      1009      1007      1010      1007      1010      1011
      1007      1010      1012      1007      1010      1013      1011      1010      1012
      1011      1010      1013      1012      1010      1013      1010      1013      1014
      1010      1013      1015      1010      1013      1016      1014      1013      1015
      1014      1013      1016      1015      1013      1016      1013      1016      1017
      1013      1016      1018      1013      1016      1019      1017      1016      1018
      1017      1016      1019      1018      1016      1019      1016      1019      1020
      1016      1019      1021      1016      1019      1022      1020      1019      1021
      1020      1019      1022      1021      1019      1022      1019      1022      1023
      1019      1022      1024      1019      1022      1025      1023      1022      1024
      1023      1022      1025      1024      1022      1025      1022      1025      1026
      1022      1025      1027      1022      1025      1028      1026      1025      1027
      1026      1025      1028      1027      1025      1028      1025      1028      1029
      1025      1028      1030      1025      1028      1031      1029      1028      1030
      1029      1028      1031      1030      1028      1031      1028      1031      1032
      1028      1031      1033      1028      1031      1034      1032      1031      1033
      1032      1031      1034      1033      1031      1034      1031      1034      1035
      1031      1034      1036      1031      1034      1037      1035      1034      1036
      1035      1034      1037      1036      1034      1037      1034      1037      1038
      1034      1037      1039      1034      1037      1040      1038      1037      1039
      1038      1037      1040      1039      1037      1040      1042      1041      1046
      1042      1041      1050      1042      1041      1054      1046      1041      1050
      1046      1041      1054      1050      1041      1054      1041      1042      1043
      1041      1042      1044      1041      1042      1045      1043      1042      1044
      1043      1042      1045      1044      1042      1045      1041      1046      1047
      1041      1046      1048      1041      1046      1049      1047      1046      1048
      1047      1046      1049      1048      1046      1049      1041      1050      1051
      1041      1050      1052      1041      1050      1053      1051      1050      1052
      1051      1050      1053      1052      1050      1053      1041      1054      1055
      1041      1054      1056      1041      1054      1057      1055      1054      1056
      1055      1054      1057      1056      1054      1057      1054      1057      1058
      1054      1057      1059      1054      1057      1064      1058      1057      1059
      1058      1057      1064      1059      1057      1064      1061      1060      1062
      1061      1060      1063      1061      1060      1064      1062      1060      1063
      1062      1060      1064      1063      1060      1064      1060      1063      1065
      1057      1064      1060      1063      1065      1066      1063      1065      1067
      1063      1065      1068      1066      1065      1067      1066      1065      1068
      1067      1065      1068      1065      1068      1069      1065      1068      1070
      1065      1068      1076      1069      1068      1070      1069      1068      1076
      1070      1068      1076      1068      1070      1071      1070      1071      1072
      1070      1071      1073      1072      1071      1073      1071      1073      1074
      1071      1073      1075      1071      1073      1085      1074      1073      1075
      1074      1073      1085      1075      1073      1085      1068      1076      1077
      1068      1076      1078      1068      1076      1079      1077      1076      1078
      1077      1076      1079      1078      1076      1079      1076      1079      1080
      1079      1080      1081      1079      1080      1082      1081      1080      1082
      1080      1082      1083      1080      1082      1084      1080      1082      1128
      1083      1082      1084      1083      1082      1128      1084      1082      1128
      1073      1085      1086      1073      1085      1087      1073      1085      1088
      1086      1085      1087      1086      1085      1088      1087      1085      1088
      1085      1088      1089      1085      1088      1090      1085      1088      1091
      1089      1088      1090      1089      1088      1091      1090      1088      1091
      1088      1091      1092      1088      1091      1093      1088      1091      1094
      1092      1091      1093      1092      1091      1094      1093      1091      1094
      1091      1094      1095      1091      1094      1096      1091      1094      1097
      1095      1094      1096      1095      1094      1097      1096      1094      1097
      1094      1097      1098      1094      1097      1099      1094      1097      1100
      1098      1097      1099      1098      1097      1100      1099      1097      1100
      1097      1100      1101      1097      1100      1102      1097      1100      1103
      1101      1100      1102      1101      1100      1103      1102      1100      1103
      1100      1103      1104      1100      1103      1105      1100      1103      1106
      1104      1103      1105      1104      1103      1106      1105      1103      1106
      1103      1106      1107      1103      1106      1108      1103      1106      1109
      1107      1106      1108      1107      1106      1109      1108      1106      1109
      1106      1109      1110      1106      1109      1111      1106      1109      1112
      1110      1109      1111      1110      1109      1112      1111      1109      1112
      1109      1112      1113      1109      1112      1114      1109      1112      1115
      1113      1112      1114      1113      1112      1115      1114      1112      1115
      1112      1115      1116      1112      1115      1117      1112      1115      1118
      1116      1115      1117      1116      1115      1118      1117      1115      1118
      1115      1118      1119      1115      1118      1120      1115      1118      1121
      1119      1118      1120      1119      1118      1121      1120      1118      1121
      1118      1121      1122      1118      1121      1123      1118      1121      1124
      1122      1121      1123      1122      1121      1124      1123      1121      1124
      1121      1124      1125      1121      1124      1126      1121      1124      1127
      1125      1124      1126      1125      1124      1127      1126      1124      1127
      1082      1128      1129      1082      1128      1130      1082      1128      1131
      1129      1128      1130      1129      1128      1131      1130      1128      1131
      1128      1131      1132      1128      1131      1133      1128      1131      1134
      1132      1131      1133      1132      1131      1134      1133      1131      1134
      1131      1134      1135      1131      1134      1136      1131      1134      1137
      1135      1134      1136      1135      1134      1137      1136      1134      1137
      1134      1137      1138      1134      1137      1139      1134      1137      1140
      1138      1137      1139      1138      1137      1140      1139      1137      1140
      1137      1140      1141      1137      1140      1142      1137      1140      1143
      1141      1140      1142      1141      1140      1143      1142      1140      1143
      1140      1143      1144      1140      1143      1145      1140      1143      1146
      1144      1143      1145      1144      1143      1146      1145      1143      1146
      1143      1146      1147      1143      1146      1148      1143      1146      1149
      1147      1146      1148      1147      1146      1149      1148      1146      1149
      1146      1149      1150      1146      1149      1151      1146      1149      1152
      1150      1149      1151      1150      1149      1152      1151      1149      1152
      1149      1152      1153      1149      1152      1154      1149      1152      1155
      1153      1152      1154      1153      1152      1155      1154      1152      1155
      1152      1155      1156      1152      1155      1157      1152      1155      1158
      1156      1155      1157      1156      1155      1158      1157      1155      1158
      1155      1158      1159      1155      1158      1160      1155      1158      1161
      1159      1158      1160      1159      1158      1161      1160      1158      1161
      1158      1161      1162      1158      1161      1163      1158      1161      1164
      1162      1161      1163      1162      1161      1164      1163      1161      1164
      1161      1164      1165      1161      1164      1166      1161      1164      1167
      1165      1164      1166      1165      1164      1167      1166      1164      1167
      1164      1167      1168      1164      1167      1169      1164      1167      1170
      1168      1167      1169      1168      1167      1170      1169      1167      1170
      1172      1171      1176      1172      1171      1180      1172      1171      1184
      1176      1171      1180      1176      1171      1184      1180      1171      1184
      1171      1172      1173      1171      1172      1174      1171      1172      1175
      1173      1172      1174      1173      1172      1175      1174      1172      1175
      1171      1176      1177      1171      1176      1178      1171      1176      1179
      1177      1176      1178      1177      1176      1179      1178      1176      1179
      1171      1180      1181      1171      1180      1182      1171      1180      1183
      1181      1180      1182      1181      1180      1183      1182      1180      1183
      1171      1184      1185      1171      1184      1186      1171      1184      1187
      1185      1184      1186      1185      1184      1187      1186      1184      1187
      1184      1187      1188      1184      1187      1189      1184      1187      1194
      1188      1187      1189      1188      1187      1194      1189      1187      1194
      1191      1190      1192      1191      1190      1193      1191      1190      1194
      1192      1190      1193      1192      1190      1194      1193      1190      1194
      1190      1193      1195      1187      1194      1190      1193      1195      1196
      1193      1195      1197      1193      1195      1198      1196      1195      1197
      1196      1195      1198      1197      1195      1198      1195      1198      1199
      1195      1198      1200      1195      1198      1206      1199      1198      1200
      1199      1198      1206      1200      1198      1206      1198      1200      1201
      1200      1201      1202      1200      1201      1203      1202      1201      1203
      1201      1203      1204      1201      1203      1205      1201      1203      1215
      1204      1203      1205      1204      1203      1215      1205      1203      1215
      1198      1206      1207      1198      1206      1208      1198      1206      1209
      1207      1206      1208      1207      1206      1209      1208      1206      1209
      1206      1209      1210      1209      1210      1211      1209      1210      1212
      1211      1210      1212      1210      1212      1213      1210      1212      1214
      1210      1212      1258      1213      1212      1214      1213      1212      1258
      1214      1212      1258      1203      1215      1216      1203      1215      1217
      1203      1215      1218      1216      1215      1217      1216      1215      1218
      1217      1215      1218      1215      1218      1219      1215      1218      1220
      1215      1218      1221      1219      1218      1220      1219      1218      1221
      1220      1218      1221      1218      1221      1222      1218      1221      1223
      1218      1221      1224      1222      1221      1223      1222      1221      1224
      1223      1221      1224      1221      1224      1225      1221      1224      1226
      1221      1224      1227      1225      1224      1226      1225      1224      1227
      1226      1224      1227      1224      1227      1228      1224      1227      1229
      1224      1227      1230      1228      1227      1229      1228      1227      1230
      1229      1227      1230      1227      1230      1231      1227      1230      1232
      1227      1230      1233      1231      1230      1232      1231      1230      1233
      1232      1230      1233      1230      1233      1234      1230      1233      1235
      1230      1233      1236      1234      1233      1235      1234      1233      1236
      1235      1233      1236      1233      1236      1237      1233      1236      1238
      1233      1236      1239      1237      1236      1238      1237      1236      1239
      1238      1236      1239      1236      1239      1240      1236      1239      1241
      1236      1239      1242      1240      1239      1241      1240      1239      1242
      1241      1239      1242      1239      1242      1243      1239      1242      1244
      1239      1242      1245      1243      1242      1244      1243      1242      1245
      1244      1242      1245      1242      1245      1246      1242      1245      1247
      1242      1245      1248      1246      1245      1247      1246      1245      1248
      1247      1245      1248      1245      1248      1249      1245      1248      1250
      1245      1248      1251      1249      1248      1250      1249      1248      1251
      1250      1248      1251      1248      1251      1252      1248      1251      1253
      1248      1251      1254      1252      1251      1253      1252      1251      1254
      1253      1251      1254      1251      1254      1255      1251      1254      1256
      1251      1254      1257      1255      1254      1256      1255      1254      1257
      1256      1254      1257      1212      1258      1259      1212      1258      1260
      1212      1258      1261      1259      1258      1260      1259      1258      1261
      1260      1258      1261      1258      1261      1262      1258      1261      1263
      1258      1261      1264      1262      1261      1263      1262      1261      1264
      1263      1261      1264      1261      1264      1265      1261      1264      1266
      1261      1264      1267      1265      1264      1266      1265      1264      1267
      1266      1264      1267      1264      1267      1268      1264      1267      1269
      1264      1267      1270      1268      1267      1269      1268      1267      1270
      1269      1267      1270      1267      1270      1271      1267      1270      1272
      1267      1270      1273      1271      1270      1272      1271      1270      1273
      1272      1270      1273      1270      1273      1274      1270      1273      1275
      1270      1273      1276      1274      1273      1275      1274      1273      1276
      1275      1273      1276      1273      1276      1277      1273      1276      1278
      1273      1276      1279      1277      1276      1278      1277      1276      1279
      1278      1276      1279      1276      1279      1280      1276      1279      1281
      1276      1279      1282      1280      1279      1281      1280      1279      1282
      1281      1279      1282      1279      1282      1283      1279      1282      1284
      1279      1282      1285      1283      1282      1284      1283      1282      1285
      1284      1282      1285      1282      1285      1286      1282      1285      1287
      1282      1285      1288      1286      1285      1287      1286      1285      1288
      1287      1285      1288      1285      1288      1289      1285      1288      1290
      1285      1288      1291      1289      1288      1290      1289      1288      1291
      1290      1288      1291      1288      1291      1292      1288      1291      1293
      1288      1291      1294      1292      1291      1293      1292      1291      1294
      1293      1291      1294      1291      1294      1295      1291      1294      1296
      1291      1294      1297      1295      1294      1296      1295      1294      1297
      1296      1294      1297      1294      1297      1298      1294      1297      1299
      1294      1297      1300      1298      1297      1299      1298      1297      1300
      1299      1297      1300      1302      1301      1306      1302      1301      1310
      1302      1301      1314      1306      1301      1310      1306      1301      1314
      1310      1301      1314      1301      1302      1303      1301      1302      1304
      1301      1302      1305      1303      1302      1304      1303      1302      1305
      1304      1302      1305      1301      1306      1307      1301      1306      1308
      1301      1306      1309      1307      1306      1308      1307      1306      1309
      1308      1306      1309      1301      1310      1311      1301      1310      1312
      1301      1310      1313      1311      1310      1312      1311      1310      1313
      1312      1310      1313      1301      1314      1315      1301      1314      1316
      1301      1314      1317      1315      1314      1316      1315      1314      1317
      1316      1314      1317      1314      1317      1318      1314      1317      1319
      1314      1317      1324      1318      1317      1319      1318      1317      1324
      1319      1317      1324      1321      1320      1322      1321      1320      1323
      1321      1320      1324      1322      1320      1323      1322      1320      1324
      1323      1320      1324      1320      1323      1325      1317      1324      1320
      1323      1325      1326      1323      1325      1327      1323      1325      1328
      1326      1325      1327      1326      1325      1328      1327      1325      1328
      1325      1328      1329      1325      1328      1330      1325      1328      1336
      1329      1328      1330      1329      1328      1336      1330      1328      1336
      1328      1330      1331      1330      1331      1332      1330      1331      1333
      1332      1331      1333      1331      1333      1334      1331      1333      1335
      1331      1333      1345      1334      1333      1335      1334      1333      1345
      1335      1333      1345      1328      1336      1337      1328      1336      1338
      1328      1336      1339      1337      1336      1338      1337      1336      1339
      1338      1336      1339      1336      1339      1340      1339      1340      1341
      1339      1340      1342      1341      1340      1342      1340      1342      1343
      1340      1342      1344      1340      1342      1388      1343      1342      1344
      1343      1342      1388      1344      1342      1388      1333      1345      1346
      1333      1345      1347      1333      1345      1348      1346      1345      1347
      1346      1345      1348      1347      1345      1348      1345      1348      1349
      1345      1348      1350      1345      1348      1351      1349      1348      1350
      1349      1348      1351      1350      1348      1351      1348      1351      1352
      1348      1351      1353      1348      1351      1354      1352      1351      1353
      1352      1351      1354      1353      1351      1354      1351      1354      1355
      1351      1354      1356      1351      1354      1357      1355      1354      1356
      1355      1354      1357      1356      1354      1357      1354      1357      1358
      1354      1357      1359      1354      1357      1360      1358      1357      1359
      1358      1357      1360      1359      1357      1360      1357      1360      1361
      1357      1360      1362      1357      1360      1363      1361      1360      1362
      1361      1360      1363      1362      1360      1363      1360      1363      1364
      1360      1363      1365      1360      1363      1366      1364      1363      1365
      1364      1363      1366      1365      1363      1366      1363      1366      1367
      1363      1366      1368      1363      1366      1369      1367      1366      1368
      1367      1366      1369      1368      1366      1369      1366      1369      1370
      1366      1369      1371      1366      1369      1372      1370      1369      1371
      1370      1369      1372      1371      1369      1372      1369      1372      1373
      1369      1372      1374      1369      1372      1375      1373      1372      1374
      1373      1372      1375      1374      1372      1375      1372      1375      1376
      1372      1375      1377      1372      1375      1378      1376      1375      1377
      1376      1375      1378      1377      1375      1378      1375      1378      1379
      1375      1378      1380      1375      1378      1381      1379      1378      1380
      1379      1378      1381      1380      1378      1381      1378      1381      1382
      1378      1381      1383      1378      1381      1384      1382      1381      1383
      1382      1381      1384      1383      1381      1384      1381      1384      1385
      1381      1384      1386      1381      1384      1387      1385      1384      1386
      1385      1384      1387      1386      1384      1387      1342      1388      1389
      1342      1388      1390      1342      1388      1391      1389      1388      1390
      1389      1388      1391      1390      1388      1391      1388      1391      1392
      1388      1391      1393      1388      1391      1394      1392      1391      1393
      1392      1391      1394      1393      1391      1394      1391      1394      1395
      1391      1394      1396      1391      1394      1397      1395      1394      1396
      1395      1394      1397      1396      1394      1397      1394      1397      1398
      1394      1397      1399      1394      1397      1400      1398      1397      1399
      1398      1397      1400      1399      1397      1400      1397      1400      1401
      1397      1400      1402      1397      1400      1403      1401      1400      1402
      1401      1400      1403      1402      1400      1403      1400      1403      1404
      1400      1403      1405      1400      1403      1406      1404      1403      1405
      1404      1403      1406      1405      1403      1406      1403      1406      1407
      1403      1406      1408      1403      1406      1409      1407      1406      1408
      1407      1406      1409      1408      1406      1409      1406      1409      1410
      1406      1409      1411      1406      1409      1412      1410      1409      1411
      1410      1409      1412      1411      1409      1412      1409      1412      1413
      1409      1412      1414      1409      1412      1415      1413      1412      1414
      1413      1412      1415      1414      1412      1415      1412      1415      1416
      1412      1415      1417      1412      1415      1418      1416      1415      1417
      1416      1415      1418      1417      1415      1418      1415      1418      1419
      1415      1418      1420      1415      1418      1421      1419      1418      1420
      1419      1418      1421      1420      1418      1421      1418      1421      1422
      1418      1421      1423      1418      1421      1424      1422      1421      1423
      1422      1421      1424      1423      1421      1424      1421      1424      1425
      1421      1424      1426      1421      1424      1427      1425      1424      1426
      1425      1424      1427      1426      1424      1427      1424      1427      1428
      1424      1427      1429      1424      1427      1430      1428      1427      1429
      1428      1427      1430      1429      1427      1430      1432      1431      1436
      1432      1431      1440      1432      1431      1444      1436      1431      1440
      1436      1431      1444      1440      1431      1444      1431      1432      1433
      1431      1432      1434      1431      1432      1435      1433      1432      1434
      1433      1432      1435      1434      1432      1435      1431      1436      1437
      1431      1436      1438      1431      1436      1439      1437      1436      1438
      1437      1436      1439      1438      1436      1439      1431      1440      1441
      1431      1440      1442      1431      1440      1443      1441      1440      1442
      1441      1440      1443      1442      1440      1443      1431      1444      1445
      1431      1444      1446      1431      1444      1447      1445      1444      1446
      1445      1444      1447      1446      1444      1447      1444      1447      1448
      1444      1447      1449      1444      1447      1454      1448      1447      1449
      1448      1447      1454      1449      1447      1454      1451      1450      1452
      1451      1450      1453      1451      1450      1454      1452      1450      1453
      1452      1450      1454      1453      1450      1454      1450      1453      1455
      1447      1454      1450      1453      1455      1456      1453      1455      1457
      1453      1455      1458      1456      1455      1457      1456      1455      1458
      1457      1455      1458      1455      1458      1459      1455      1458      1460
      1455      1458      1466      1459      1458      1460      1459      1458      1466
      1460      1458      1466      1458      1460      1461      1460      1461      1462
      1460      1461      1463      1462      1461      1463      1461      1463      1464
      1461      1463      1465      1461      1463      1475      1464      1463      1465
      1464      1463      1475      1465      1463      1475      1458      1466      1467
      1458      1466      1468      1458      1466      1469      1467      1466      1468
      1467      1466      1469      1468      1466      1469      1466      1469      1470
      1469      1470      1471      1469      1470      1472      1471      1470      1472
      1470      1472      1473      1470      1472      1474      1470      1472      1518
      1473      1472      1474      1473      1472      1518      1474      1472      1518
      1463      1475      1476      1463      1475      1477      1463      1475      1478
      1476      1475      1477      1476      1475      1478      1477      1475      1478
      1475      1478      1479      1475      1478      1480      1475      1478      1481
      1479      1478      1480      1479      1478      1481      1480      1478      1481
      1478      1481      1482      1478      1481      1483      1478      1481      1484
      1482      1481      1483      1482      1481      1484      1483      1481      1484
      1481      1484      1485      1481      1484      1486      1481      1484      1487
      1485      1484      1486      1485      1484      1487      1486      1484      1487
      1484      1487      1488      1484      1487      1489      1484      1487      1490
      1488      1487      1489      1488      1487      1490      1489      1487      1490
      1487      1490      1491      1487      1490      1492      1487      1490      1493
      1491      1490      1492      1491      1490      1493      1492      1490      1493
      1490      1493      1494      1490      1493      1495      1490      1493      1496
      1494      1493      1495      1494      1493      1496      1495      1493      1496
      1493      1496      1497      1493      1496      1498      1493      1496      1499
      1497      1496      1498      1497      1496      1499      1498      1496      1499
      1496      1499      1500      1496      1499      1501      1496      1499      1502
      1500      1499      1501      1500      1499      1502      1501      1499      1502
      1499      1502      1503      1499      1502      1504      1499      1502      1505
      1503      1502      1504      1503      1502      1505      1504      1502      1505
      1502      1505      1506      1502      1505      1507      1502      1505      1508
      1506      1505      1507      1506      1505      1508      1507      1505      1508
      1505      1508      1509      1505      1508      1510      1505      1508      1511
      1509      1508      1510      1509      1508      1511      1510      1508      1511
      1508      1511      1512      1508      1511      1513      1508      1511      1514
      1512      1511      1513      1512      1511      1514      1513      1511      1514
      1511      1514      1515      1511      1514      1516      1511      1514      1517
      1515      1514      1516      1515      1514      1517      1516      1514      1517
      1472      1518      1519      1472      1518      1520      1472      1518      1521
      1519      1518      1520      1519      1518      1521      1520      1518      1521
      1518      1521      1522      1518      1521      1523      1518      1521      1524
      1522      1521      1523      1522      1521      1524      1523      1521      1524
      1521      1524      1525      1521      1524      1526      1521      1524      1527
      1525      1524      1526      1525      1524      1527      1526      1524      1527
      1524      1527      1528      1524      1527      1529      1524      1527      1530
      1528      1527      1529      1528      1527      1530      1529      1527      1530
      1527      1530      1531      1527      1530      1532      1527      1530      1533
      1531      1530      1532      1531      1530      1533      1532      1530      1533
      1530      1533      1534      1530      1533      1535      1530      1533      1536
      1534      1533      1535      1534      1533      1536      1535      1533      1536
      1533      1536      1537      1533      1536      1538      1533      1536      1539
      1537      1536      1538      1537      1536      1539      1538      1536      1539
      1536      1539      1540      1536      1539      1541      1536      1539      1542
      1540      1539      1541      1540      1539      1542      1541      1539      1542
      1539      1542      1543      1539      1542      1544      1539      1542      1545
      1543      1542      1544      1543      1542      1545      1544      1542      1545
      1542      1545      1546      1542      1545      1547      1542      1545      1548
      1546      1545      1547      1546      1545      1548      1547      1545      1548
      1545      1548      1549      1545      1548      1550      1545      1548      1551
      1549      1548      1550      1549      1548      1551      1550      1548      1551
      1548      1551      1552      1548      1551      1553      1548      1551      1554
      1552      1551      1553      1552      1551      1554      1553      1551      1554
      1551      1554      1555      1551      1554      1556      1551      1554      1557
      1555      1554      1556      1555      1554      1557      1556      1554      1557
      1554      1557      1558      1554      1557      1559      1554      1557      1560
      1558      1557      1559      1558      1557      1560      1559      1557      1560
      1562      1561      1566      1562      1561      1570      1562      1561      1574
      1566      1561      1570      1566      1561      1574      1570      1561      1574
      1561      1562      1563      1561      1562      1564      1561      1562      1565
      1563      1562      1564      1563      1562      1565      1564      1562      1565
      1561      1566      1567      1561      1566      1568      1561      1566      1569
      1567      1566      1568      1567      1566      1569      1568      1566      1569
      1561      1570      1571      1561      1570      1572      1561      1570      1573
      1571      1570      1572      1571      1570      1573      1572      1570      1573
      1561      1574      1575      1561      1574      1576      1561      1574      1577
      1575      1574      1576      1575      1574      1577      1576      1574      1577
      1574      1577      1578      1574      1577      1579      1574      1577      1584
      1578      1577      1579      1578      1577      1584      1579      1577      1584
      1581      1580      1582      1581      1580      1583      1581      1580      1584
      1582      1580      1583      1582      1580      1584      1583      1580      1584
      1580      1583      1585      1577      1584      1580      1583      1585      1586
      1583      1585      1587      1583      1585      1588      1586      1585      1587
      1586      1585      1588      1587      1585      1588      1585      1588      1589
      1585      1588      1590      1585      1588      1596      1589      1588      1590
      1589      1588      1596      1590      1588      1596      1588      1590      1591
      1590      1591      1592      1590      1591      1593      1592      1591      1593
      1591      1593      1594      1591      1593      1595      1591      1593      1605
      1594      1593      1595      1594      1593      1605      1595      1593      1605
      1588      1596      1597      1588      1596      1598      1588      1596      1599
      1597      1596      1598      1597      1596      1599      1598      1596      1599
      1596      1599      1600      1599      1600      1601      1599      1600      1602
      1601      1600      1602      1600      1602      1603      1600      1602      1604
      1600      1602      1648      1603      1602      1604      1603      1602      1648
      1604      1602      1648      1593      1605      1606      1593      1605      1607
      1593      1605      1608      1606      1605      1607      1606      1605      1608
      1607      1605      1608      1605      1608      1609      1605      1608      1610
      1605      1608      1611      1609      1608      1610      1609      1608      1611
      1610      1608      1611      1608      1611      1612      1608      1611      1613
      1608      1611      1614      1612      1611      1613      1612      1611      1614
      1613      1611      1614      1611      1614      1615      1611      1614      1616
      1611      1614      1617      1615      1614      1616      1615      1614      1617
      1616      1614      1617      1614      1617      1618      1614      1617      1619
      1614      1617      1620      1618      1617      1619      1618      1617      1620
      1619      1617      1620      1617      1620      1621      1617      1620      1622
      1617      1620      1623      1621      1620      1622      1621      1620      1623
      1622      1620      1623      1620      1623      1624      1620      1623      1625
      1620      1623      1626      1624      1623      1625      1624      1623      1626
      1625      1623      1626      1623      1626      1627      1623      1626      1628
      1623      1626      1629      1627      1626      1628      1627      1626      1629
      1628      1626      1629      1626      1629      1630      1626      1629      1631
      1626      1629      1632      1630      1629      1631      1630      1629      1632
      1631      1629      1632      1629      1632      1633      1629      1632      1634
      1629      1632      1635      1633      1632      1634      1633      1632      1635
      1634      1632      1635      1632      1635      1636      1632      1635      1637
      1632      1635      1638      1636      1635      1637      1636      1635      1638
      1637      1635      1638      1635      1638      1639      1635      1638      1640
      1635      1638      1641      1639      1638      1640      1639      1638      1641
      1640      1638      1641      1638      1641      1642      1638      1641      1643
      1638      1641      1644      1642      1641      1643      1642      1641      1644
      1643      1641      1644      1641      1644      1645      1641      1644      1646
      1641      1644      1647      1645      1644      1646      1645      1644      1647
      1646      1644      1647      1602      1648      1649      1602      1648      1650
      1602      1648      1651      1649      1648      1650      1649      1648      1651
      1650      1648      1651      1648      1651      1652      1648      1651      1653
      1648      1651      1654      1652      1651      1653      1652      1651      1654
      1653      1651      1654      1651      1654      1655      1651      1654      1656
      1651      1654      1657      1655      1654      1656      1655      1654      1657
      1656      1654      1657      1654      1657      1658      1654      1657      1659
      1654      1657      1660      1658      1657      1659      1658      1657      1660
      1659      1657      1660      1657      1660      1661      1657      1660      1662
      1657      1660      1663      1661      1660      1662      1661      1660      1663
      1662      1660      1663      1660      1663      1664      1660      1663      1665
      1660      1663      1666      1664      1663      1665      1664      1663      1666
      1665      1663      1666      1663      1666      1667      1663      1666      1668
      1663      1666      1669      1667      1666      1668      1667      1666      1669
      1668      1666      1669      1666      1669      1670      1666      1669      1671
      1666      1669      1672      1670      1669      1671      1670      1669      1672
      1671      1669      1672      1669      1672      1673      1669      1672      1674
      1669      1672      1675      1673      1672      1674      1673      1672      1675
      1674      1672      1675      1672      1675      1676      1672      1675      1677
      1672      1675      1678      1676      1675      1677      1676      1675      1678
      1677      1675      1678      1675      1678      1679      1675      1678      1680
      1675      1678      1681      1679      1678      1680      1679      1678      1681
      1680      1678      1681      1678      1681      1682      1678      1681      1683
      1678      1681      1684      1682      1681      1683      1682      1681      1684
      1683      1681      1684      1681      1684      1685      1681      1684      1686
      1681      1684      1687      1685      1684      1686      1685      1684      1687
      1686      1684      1687      1684      1687      1688      1684      1687      1689
      1684      1687      1690      1688      1687      1689      1688      1687      1690
      1689      1687      1690      1692      1691      1696      1692      1691      1700
      1692      1691      1704      1696      1691      1700      1696      1691      1704
      1700      1691      1704      1691      1692      1693      1691      1692      1694
      1691      1692      1695      1693      1692      1694      1693      1692      1695
      1694      1692      1695      1691      1696      1697      1691      1696      1698
      1691      1696      1699      1697      1696      1698      1697      1696      1699
      1698      1696      1699      1691      1700      1701      1691      1700      1702
      1691      1700      1703      1701      1700      1702      1701      1700      1703
      1702      1700      1703      1691      1704      1705      1691      1704      1706
      1691      1704      1707      1705      1704      1706      1705      1704      1707
      1706      1704      1707      1704      1707      1708      1704      1707      1709
      1704      1707      1714      1708      1707      1709      1708      1707      1714
      1709      1707      1714      1711      1710      1712      1711      1710      1713
      1711      1710      1714      1712      1710      1713      1712      1710      1714
      1713      1710      1714      1710      1713      1715      1707      1714      1710
      1713      1715      1716      1713      1715      1717      1713      1715      1718
      1716      1715      1717      1716      1715      1718      1717      1715      1718
      1715      1718      1719      1715      1718      1720      1715      1718      1726
      1719      1718      1720      1719      1718      1726      1720      1718      1726
      1718      1720      1721      1720      1721      1722      1720      1721      1723
      1722      1721      1723      1721      1723      1724      1721      1723      1725
      1721      1723      1735      1724      1723      1725      1724      1723      1735
      1725      1723      1735      1718      1726      1727      1718      1726      1728
      1718      1726      1729      1727      1726      1728      1727      1726      1729
      1728      1726      1729      1726      1729      1730      1729      1730      1731
      1729      1730      1732      1731      1730      1732      1730      1732      1733
      1730      1732      1734      1730      1732      1778      1733      1732      1734
      1733      1732      1778      1734      1732      1778      1723      1735      1736
      1723      1735      1737      1723      1735      1738      1736      1735      1737
      1736      1735      1738      1737      1735      1738      1735      1738      1739
      1735      1738      1740      1735      1738      1741      1739      1738      1740
      1739      1738      1741      1740      1738      1741      1738      1741      1742
      1738      1741      1743      1738      1741      1744      1742      1741      1743
      1742      1741      1744      1743      1741      1744      1741      1744      1745
      1741      1744      1746      1741      1744      1747      1745      1744      1746
      1745      1744      1747      1746      1744      1747      1744      1747      1748
      1744      1747      1749      1744      1747      1750      1748      1747      1749
      1748      1747      1750      1749      1747      1750      1747      1750      1751
      1747      1750      1752      1747      1750      1753      1751      1750      1752
      1751      1750      1753      1752      1750      1753      1750      1753      1754
      1750      1753      1755      1750      1753      1756      1754      1753      1755
      1754      1753      1756      1755      1753      1756      1753      1756      1757
      1753      1756      1758      1753      1756      1759      1757      1756      1758
      1757      1756      1759      1758      1756      1759      1756      1759      1760
      1756      1759      1761      1756      1759      1762      1760      1759      1761
      1760      1759      1762      1761      1759      1762      1759      1762      1763
      1759      1762      1764      1759      1762      1765      1763      1762      1764
      1763      1762      1765      1764      1762      1765      1762      1765      1766
      1762      1765      1767      1762      1765      1768      1766      1765      1767
      1766      1765      1768      1767      1765      1768      1765      1768      1769
      1765      1768      1770      1765      1768      1771      1769      1768      1770
      1769      1768      1771      1770      1768      1771      1768      1771      1772
      1768      1771      1773      1768      1771      1774      1772      1771      1773
      1772      1771      1774      1773      1771      1774      1771      1774      1775
      1771      1774      1776      1771      1774      1777      1775      1774      1776
      1775      1774      1777      1776      1774      1777      1732      1778      1779
      1732      1778      1780      1732      1778      1781      1779      1778      1780
      1779      1778      1781      1780      1778      1781      1778      1781      1782
      1778      1781      1783      1778      1781      1784      1782      1781      1783
      1782      1781      1784      1783      1781      1784      1781      1784      1785
      1781      1784      1786      1781      1784      1787      1785      1784      1786
      1785      1784      1787      1786      1784      1787      1784      1787      1788
      1784      1787      1789      1784      1787      1790      1788      1787      1789
      1788      1787      1790      1789      1787      1790      1787      1790      1791
      1787      1790      1792      1787      1790      1793      1791      1790      1792
      1791      1790      1793      1792      1790      1793      1790      1793      1794
      1790      1793      1795      1790      1793      1796      1794      1793      1795
      1794      1793      1796      1795      1793      1796      1793      1796      1797
      1793      1796      1798      1793      1796      1799      1797      1796      1798
      1797      1796      1799      1798      1796      1799      1796      1799      1800
      1796      1799      1801      1796      1799      1802      1800      1799      1801
      1800      1799      1802      1801      1799      1802      1799      1802      1803
      1799      1802      1804      1799      1802      1805      1803      1802      1804
      1803      1802      1805      1804      1802      1805      1802      1805      1806
      1802      1805      1807      1802      1805      1808      1806      1805      1807
      1806      1805      1808      1807      1805      1808      1805      1808      1809
      1805      1808      1810      1805      1808      1811      1809      1808      1810
      1809      1808      1811      1810      1808      1811      1808      1811      1812
      1808      1811      1813      1808      1811      1814      1812      1811      1813
      1812      1811      1814      1813      1811      1814      1811      1814      1815
      1811      1814      1816      1811      1814      1817      1815      1814      1816
      1815      1814      1817      1816      1814      1817      1814      1817      1818
      1814      1817      1819      1814      1817      1820      1818      1817      1819
      1818      1817      1820      1819      1817      1820      1822      1821      1826
      1822      1821      1830      1822      1821      1834      1826      1821      1830
      1826      1821      1834      1830      1821      1834      1821      1822      1823
      1821      1822      1824      1821      1822      1825      1823      1822      1824
      1823      1822      1825      1824      1822      1825      1821      1826      1827
      1821      1826      1828      1821      1826      1829      1827      1826      1828
      1827      1826      1829      1828      1826      1829      1821      1830      1831
      1821      1830      1832      1821      1830      1833      1831      1830      1832
      1831      1830      1833      1832      1830      1833      1821      1834      1835
      1821      1834      1836      1821      1834      1837      1835      1834      1836
      1835      1834      1837      1836      1834      1837      1834      1837      1838
      1834      1837      1839      1834      1837      1844      1838      1837      1839
      1838      1837      1844      1839      1837      1844      1841      1840      1842
      1841      1840      1843      1841      1840      1844      1842      1840      1843
      1842      1840      1844      1843      1840      1844      1840      1843      1845
      1837      1844      1840      1843      1845      1846      1843      1845      1847
      1843      1845      1848      1846      1845      1847      1846      1845      1848
      1847      1845      1848      1845      1848      1849      1845      1848      1850
      1845      1848      1856      1849      1848      1850      1849      1848      1856
      1850      1848      1856      1848      1850      1851      1850      1851      1852
      1850      1851      1853      1852      1851      1853      1851      1853      1854
      1851      1853      1855      1851      1853      1865      1854      1853      1855
      1854      1853      1865      1855      1853      1865      1848      1856      1857
      1848      1856      1858      1848      1856      1859      1857      1856      1858
      1857      1856      1859      1858      1856      1859      1856      1859      1860
      1859      1860      1861      1859      1860      1862      1861      1860      1862
      1860      1862      1863      1860      1862      1864      1860      1862      1908
      1863      1862      1864      1863      1862      1908      1864      1862      1908
      1853      1865      1866      1853      1865      1867      1853      1865      1868
      1866      1865      1867      1866      1865      1868      1867      1865      1868
      1865      1868      1869      1865      1868      1870      1865      1868      1871
      1869      1868      1870      1869      1868      1871      1870      1868      1871
      1868      1871      1872      1868      1871      1873      1868      1871      1874
      1872      1871      1873      1872      1871      1874      1873      1871      1874
      1871      1874      1875      1871      1874      1876      1871      1874      1877
      1875      1874      1876      1875      1874      1877      1876      1874      1877
      1874      1877      1878      1874      1877      1879      1874      1877      1880
      1878      1877      1879      1878      1877      1880      1879      1877      1880
      1877      1880      1881      1877      1880      1882      1877      1880      1883
      1881      1880      1882      1881      1880      1883      1882      1880      1883
      1880      1883      1884      1880      1883      1885      1880      1883      1886
      1884      1883      1885      1884      1883      1886      1885      1883      1886
      1883      1886      1887      1883      1886      1888      1883      1886      1889
      1887      1886      1888      1887      1886      1889      1888      1886      1889
      1886      1889      1890      1886      1889      1891      1886      1889      1892
      1890      1889      1891      1890      1889      1892      1891      1889      1892
      1889      1892      1893      1889      1892      1894      1889      1892      1895
      1893      1892      1894      1893      1892      1895      1894      1892      1895
      1892      1895      1896      1892      1895      1897      1892      1895      1898
      1896      1895      1897      1896      1895      1898      1897      1895      1898
      1895      1898      1899      1895      1898      1900      1895      1898      1901
      1899      1898      1900      1899      1898      1901      1900      1898      1901
      1898      1901      1902      1898      1901      1903      1898      1901      1904
      1902      1901      1903      1902      1901      1904      1903      1901      1904
      1901      1904      1905      1901      1904      1906      1901      1904      1907
      1905      1904      1906      1905      1904      1907      1906      1904      1907
      1862      1908      1909      1862      1908      1910      1862      1908      1911
      1909      1908      1910      1909      1908      1911      1910      1908      1911
      1908      1911      1912      1908      1911      1913      1908      1911      1914
      1912      1911      1913      1912      1911      1914      1913      1911      1914
      1911      1914      1915      1911      1914      1916      1911      1914      1917
      1915      1914      1916      1915      1914      1917      1916      1914      1917
      1914      1917      1918      1914      1917      1919      1914      1917      1920
      1918      1917      1919      1918      1917      1920      1919      1917      1920
      1917      1920      1921      1917      1920      1922      1917      1920      1923
      1921      1920      1922      1921      1920      1923      1922      1920      1923
      1920      1923      1924      1920      1923      1925      1920      1923      1926
      1924      1923      1925      1924      1923      1926      1925      1923      1926
      1923      1926      1927      1923      1926      1928      1923      1926      1929
      1927      1926      1928      1927      1926      1929      1928      1926      1929
      1926      1929      1930      1926      1929      1931      1926      1929      1932
      1930      1929      1931      1930      1929      1932      1931      1929      1932
      1929      1932      1933      1929      1932      1934      1929      1932      1935
      1933      1932      1934      1933      1932      1935      1934      1932      1935
      1932      1935      1936      1932      1935      1937      1932      1935      1938
      1936      1935      1937      1936      1935      1938      1937      1935      1938
      1935      1938      1939      1935      1938      1940      1935      1938      1941
      1939      1938      1940      1939      1938      1941      1940      1938      1941
      1938      1941      1942      1938      1941      1943      1938      1941      1944
      1942      1941      1943      1942      1941      1944      1943      1941      1944
      1941      1944      1945      1941      1944      1946      1941      1944      1947
      1945      1944      1946      1945      1944      1947      1946      1944      1947
      1944      1947      1948      1944      1947      1949      1944      1947      1950
      1948      1947      1949      1948      1947      1950      1949      1947      1950
      1952      1951      1956      1952      1951      1960      1952      1951      1964
      1956      1951      1960      1956      1951      1964      1960      1951      1964
      1951      1952      1953      1951      1952      1954      1951      1952      1955
      1953      1952      1954      1953      1952      1955      1954      1952      1955
      1951      1956      1957      1951      1956      1958      1951      1956      1959
      1957      1956      1958      1957      1956      1959      1958      1956      1959
      1951      1960      1961      1951      1960      1962      1951      1960      1963
      1961      1960      1962      1961      1960      1963      1962      1960      1963
      1951      1964      1965      1951      1964      1966      1951      1964      1967
      1965      1964      1966      1965      1964      1967      1966      1964      1967
      1964      1967      1968      1964      1967      1969      1964      1967      1974
      1968      1967      1969      1968      1967      1974      1969      1967      1974
      1971      1970      1972      1971      1970      1973      1971      1970      1974
      1972      1970      1973      1972      1970      1974      1973      1970      1974
      1970      1973      1975      1967      1974      1970      1973      1975      1976
      1973      1975      1977      1973      1975      1978      1976      1975      1977
      1976      1975      1978      1977      1975      1978      1975      1978      1979
      1975      1978      1980      1975      1978      1986      1979      1978      1980
      1979      1978      1986      1980      1978      1986      1978      1980      1981
      1980      1981      1982      1980      1981      1983      1982      1981      1983
      1981      1983      1984      1981      1983      1985      1981      1983      1995
      1984      1983      1985      1984      1983      1995      1985      1983      1995
      1978      1986      1987      1978      1986      1988      1978      1986      1989
      1987      1986      1988      1987      1986      1989      1988      1986      1989
      1986      1989      1990      1989      1990      1991      1989      1990      1992
      1991      1990      1992      1990      1992      1993      1990      1992      1994
      1990      1992      2038      1993      1992      1994      1993      1992      2038
      1994      1992      2038      1983      1995      1996      1983      1995      1997
      1983      1995      1998      1996      1995      1997      1996      1995      1998
      1997      1995      1998      1995      1998      1999      1995      1998      2000
      1995      1998      2001      1999      1998      2000      1999      1998      2001
      2000      1998      2001      1998      2001      2002      1998      2001      2003
      1998      2001      2004      2002      2001      2003      2002      2001      2004
      2003      2001      2004      2001      2004      2005      2001      2004      2006
      2001      2004      2007      2005      2004      2006      2005      2004      2007
      2006      2004      2007      2004      2007      2008      2004      2007      2009
      2004      2007      2010      2008      2007      2009      2008      2007      2010
      2009      2007      2010      2007      2010      2011      2007      2010      2012
      2007      2010      2013      2011      2010      2012      2011      2010      2013
      2012      2010      2013      2010      2013      2014      2010      2013      2015
      2010      2013      2016      2014      2013      2015      2014      2013      2016
      2015      2013      2016      2013      2016      2017      2013      2016      2018
      2013      2016      2019      2017      2016      2018      2017      2016      2019
      2018      2016      2019      2016      2019      2020      2016      2019      2021
      2016      2019      2022      2020      2019      2021      2020      2019      2022
      2021      2019      2022      2019      2022      2023      2019      2022      2024
      2019      2022      2025      2023      2022      2024      2023      2022      2025
      2024      2022      2025      2022      2025      2026      2022      2025      2027
      2022      2025      2028      2026      2025      2027      2026      2025      2028
      2027      2025      2028      2025      2028      2029      2025      2028      2030
      2025      2028      2031      2029      2028      2030      2029      2028      2031
      2030      2028      2031      2028      2031      2032      2028      2031      2033
      2028      2031      2034      2032      2031      2033      2032      2031      2034
      2033      2031      2034      2031      2034      2035      2031      2034      2036
      2031      2034      2037      2035      2034      2036      2035      2034      2037
      2036      2034      2037      1992      2038      2039      1992      2038      2040
      1992      2038      2041      2039      2038      2040      2039      2038      2041
      2040      2038      2041      2038      2041      2042      2038      2041      2043
      2038      2041      2044      2042      2041      2043      2042      2041      2044
      2043      2041      2044      2041      2044      2045      2041      2044      2046
      2041      2044      2047      2045      2044      2046      2045      2044      2047
      2046      2044      2047      2044      2047      2048      2044      2047      2049
      2044      2047      2050      2048      2047      2049      2048      2047      2050
      2049      2047      2050      2047      2050      2051      2047      2050      2052
      2047      2050      2053      2051      2050      2052      2051      2050      2053
      2052      2050      2053      2050      2053      2054      2050      2053      2055
      2050      2053      2056      2054      2053      2055      2054      2053      2056
      2055      2053      2056      2053      2056      2057      2053      2056      2058
      2053      2056      2059      2057      2056      2058      2057      2056      2059
      2058      2056      2059      2056      2059      2060      2056      2059      2061
      2056      2059      2062      2060      2059      2061      2060      2059      2062
      2061      2059      2062      2059      2062      2063      2059      2062      2064
      2059      2062      2065      2063      2062      2064      2063      2062      2065
      2064      2062      2065      2062      2065      2066      2062      2065      2067
      2062      2065      2068      2066      2065      2067      2066      2065      2068
      2067      2065      2068      2065      2068      2069      2065      2068      2070
      2065      2068      2071      2069      2068      2070      2069      2068      2071
      2070      2068      2071      2068      2071      2072      2068      2071      2073
      2068      2071      2074      2072      2071      2073      2072      2071      2074
      2073      2071      2074      2071      2074      2075      2071      2074      2076
      2071      2074      2077      2075      2074      2076      2075      2074      2077
      2076      2074      2077      2074      2077      2078      2074      2077      2079
      2074      2077      2080      2078      2077      2079      2078      2077      2080
      2079      2077      2080      2082      2081      2086      2082      2081      2090
      2082      2081      2094      2086      2081      2090      2086      2081      2094
      2090      2081      2094      2081      2082      2083      2081      2082      2084
      2081      2082      2085      2083      2082      2084      2083      2082      2085
      2084      2082      2085      2081      2086      2087      2081      2086      2088
      2081      2086      2089      2087      2086      2088      2087      2086      2089
      2088      2086      2089      2081      2090      2091      2081      2090      2092
      2081      2090      2093      2091      2090      2092      2091      2090      2093
      2092      2090      2093      2081      2094      2095      2081      2094      2096
      2081      2094      2097      2095      2094      2096      2095      2094      2097
      2096      2094      2097      2094      2097      2098      2094      2097      2099
      2094      2097      2104      2098      2097      2099      2098      2097      2104
      2099      2097      2104      2101      2100      2102      2101      2100      2103
      2101      2100      2104      2102      2100      2103      2102      2100      2104
      2103      2100      2104      2100      2103      2105      2097      2104      2100
      2103      2105      2106      2103      2105      2107      2103      2105      2108
      2106      2105      2107      2106      2105      2108      2107      2105      2108
      2105      2108      2109      2105      2108      2110      2105      2108      2116
      2109      2108      2110      2109      2108      2116      2110      2108      2116
      2108      2110      2111      2110      2111      2112      2110      2111      2113
      2112      2111      2113      2111      2113      2114      2111      2113      2115
      2111      2113      2125      2114      2113      2115      2114      2113      2125
      2115      2113      2125      2108      2116      2117      2108      2116      2118
      2108      2116      2119      2117      2116      2118      2117      2116      2119
      2118      2116      2119      2116      2119      2120      2119      2120      2121
      2119      2120      2122      2121      2120      2122      2120      2122      2123
      2120      2122      2124      2120      2122      2168      2123      2122      2124
      2123      2122      2168      2124      2122      2168      2113      2125      2126
      2113      2125      2127      2113      2125      2128      2126      2125      2127
      2126      2125      2128      2127      2125      2128      2125      2128      2129
      2125      2128      2130      2125      2128      2131      2129      2128      2130
      2129      2128      2131      2130      2128      2131      2128      2131      2132
      2128      2131      2133      2128      2131      2134      2132      2131      2133
      2132      2131      2134      2133      2131      2134      2131      2134      2135
      2131      2134      2136      2131      2134      2137      2135      2134      2136
      2135      2134      2137      2136      2134      2137      2134      2137      2138
      2134      2137      2139      2134      2137      2140      2138      2137      2139
      2138      2137      2140      2139      2137      2140      2137      2140      2141
      2137      2140      2142      2137      2140      2143      2141      2140      2142
      2141      2140      2143      2142      2140      2143      2140      2143      2144
      2140      2143      2145      2140      2143      2146      2144      2143      2145
      2144      2143      2146      2145      2143      2146      2143      2146      2147
      2143      2146      2148      2143      2146      2149      2147      2146      2148
      2147      2146      2149      2148      2146      2149      2146      2149      2150
      2146      2149      2151      2146      2149      2152      2150      2149      2151
      2150      2149      2152      2151      2149      2152      2149      2152      2153
      2149      2152      2154      2149      2152      2155      2153      2152      2154
      2153      2152      2155      2154      2152      2155      2152      2155      2156
      2152      2155      2157      2152      2155      2158      2156      2155      2157
      2156      2155      2158      2157      2155      2158      2155      2158      2159
      2155      2158      2160      2155      2158      2161      2159      2158      2160
      2159      2158      2161      2160      2158      2161      2158      2161      2162
      2158      2161      2163      2158      2161      2164      2162      2161      2163
      2162      2161      2164      2163      2161      2164      2161      2164      2165
      2161      2164      2166      2161      2164      2167      2165      2164      2166
      2165      2164      2167      2166      2164      2167      2122      2168      2169
      2122      2168      2170      2122      2168      2171      2169      2168      2170
      2169      2168      2171      2170      2168      2171      2168      2171      2172
      2168      2171      2173      2168      2171      2174      2172      2171      2173
      2172      2171      2174      2173      2171      2174      2171      2174      2175
      2171      2174      2176      2171      2174      2177      2175      2174      2176
      2175      2174      2177      2176      2174      2177      2174      2177      2178
      2174      2177      2179      2174      2177      2180      2178      2177      2179
      2178      2177      2180      2179      2177      2180      2177      2180      2181
      2177      2180      2182      2177      2180      2183      2181      2180      2182
      2181      2180      2183      2182      2180      2183      2180      2183      2184
      2180      2183      2185      2180      2183      2186      2184      2183      2185
      2184      2183      2186      2185      2183      2186      2183      2186      2187
      2183      2186      2188      2183      2186      2189      2187      2186      2188
      2187      2186      2189      2188      2186      2189      2186      2189      2190
      2186      2189      2191      2186      2189      2192      2190      2189      2191
      2190      2189      2192      2191      2189      2192      2189      2192      2193
      2189      2192      2194      2189      2192      2195      2193      2192      2194
      2193      2192      2195      2194      2192      2195      2192      2195      2196
      2192      2195      2197      2192      2195      2198      2196      2195      2197
      2196      2195      2198      2197      2195      2198      2195      2198      2199
      2195      2198      2200      2195      2198      2201      2199      2198      2200
      2199      2198      2201      2200      2198      2201      2198      2201      2202
      2198      2201      2203      2198      2201      2204      2202      2201      2203
      2202      2201      2204      2203      2201      2204      2201      2204      2205
      2201      2204      2206      2201      2204      2207      2205      2204      2206
      2205      2204      2207      2206      2204      2207      2204      2207      2208
      2204      2207      2209      2204      2207      2210      2208      2207      2209
      2208      2207      2210      2209      2207      2210      2212      2211      2216
      2212      2211      2220      2212      2211      2224      2216      2211      2220
      2216      2211      2224      2220      2211      2224      2211      2212      2213
      2211      2212      2214      2211      2212      2215      2213      2212      2214
      2213      2212      2215      2214      2212      2215      2211      2216      2217
      2211      2216      2218      2211      2216      2219      2217      2216      2218
      2217      2216      2219      2218      2216      2219      2211      2220      2221
      2211      2220      2222      2211      2220      2223      2221      2220      2222
      2221      2220      2223      2222      2220      2223      2211      2224      2225
      2211      2224      2226      2211      2224      2227      2225      2224      2226
      2225      2224      2227      2226      2224      2227      2224      2227      2228
      2224      2227      2229      2224      2227      2234      2228      2227      2229
      2228      2227      2234      2229      2227      2234      2231      2230      2232
      2231      2230      2233      2231      2230      2234      2232      2230      2233
      2232      2230      2234      2233      2230      2234      2230      2233      2235
      2227      2234      2230      2233      2235      2236      2233      2235      2237
      2233      2235      2238      2236      2235      2237      2236      2235      2238
      2237      2235      2238      2235      2238      2239      2235      2238      2240
      2235      2238      2246      2239      2238      2240      2239      2238      2246
      2240      2238      2246      2238      2240      2241      2240      2241      2242
      2240      2241      2243      2242      2241      2243      2241      2243      2244
      2241      2243      2245      2241      2243      2255      2244      2243      2245
      2244      2243      2255      2245      2243      2255      2238      2246      2247
      2238      2246      2248      2238      2246      2249      2247      2246      2248
      2247      2246      2249      2248      2246      2249      2246      2249      2250
      2249      2250      2251      2249      2250      2252      2251      2250      2252
      2250      2252      2253      2250      2252      2254      2250      2252      2298
      2253      2252      2254      2253      2252      2298      2254      2252      2298
      2243      2255      2256      2243      2255      2257      2243      2255      2258
      2256      2255      2257      2256      2255      2258      2257      2255      2258
      2255      2258      2259      2255      2258      2260      2255      2258      2261
      2259      2258      2260      2259      2258      2261      2260      2258      2261
      2258      2261      2262      2258      2261      2263      2258      2261      2264
      2262      2261      2263      2262      2261      2264      2263      2261      2264
      2261      2264      2265      2261      2264      2266      2261      2264      2267
      2265      2264      2266      2265      2264      2267      2266      2264      2267
      2264      2267      2268      2264      2267      2269      2264      2267      2270
      2268      2267      2269      2268      2267      2270      2269      2267      2270
      2267      2270      2271      2267      2270      2272      2267      2270      2273
      2271      2270      2272      2271      2270      2273      2272      2270      2273
      2270      2273      2274      2270      2273      2275      2270      2273      2276
      2274      2273      2275      2274      2273      2276      2275      2273      2276
      2273      2276      2277      2273      2276      2278      2273      2276      2279
      2277      2276      2278      2277      2276      2279      2278      2276      2279
      2276      2279      2280      2276      2279      2281      2276      2279      2282
      2280      2279      2281      2280      2279      2282      2281      2279      2282
      2279      2282      2283      2279      2282      2284      2279      2282      2285
      2283      2282      2284      2283      2282      2285      2284      2282      2285
      2282      2285      2286      2282      2285      2287      2282      2285      2288
      2286      2285      2287      2286      2285      2288      2287      2285      2288
      2285      2288      2289      2285      2288      2290      2285      2288      2291
      2289      2288      2290      2289      2288      2291      2290      2288      2291
      2288      2291      2292      2288      2291      2293      2288      2291      2294
      2292      2291      2293      2292      2291      2294      2293      2291      2294
      2291      2294      2295      2291      2294      2296      2291      2294      2297
      2295      2294      2296      2295      2294      2297      2296      2294      2297
      2252      2298      2299      2252      2298      2300      2252      2298      2301
      2299      2298      2300      2299      2298      2301      2300      2298      2301
      2298      2301      2302      2298      2301      2303      2298      2301      2304
      2302      2301      2303      2302      2301      2304      2303      2301      2304
      2301      2304      2305      2301      2304      2306      2301      2304      2307
      2305      2304      2306      2305      2304      2307      2306      2304      2307
      2304      2307      2308      2304      2307      2309      2304      2307      2310
      2308      2307      2309      2308      2307      2310      2309      2307      2310
      2307      2310      2311      2307      2310      2312      2307      2310      2313
      2311      2310      2312      2311      2310      2313      2312      2310      2313
      2310      2313      2314      2310      2313      2315      2310      2313      2316
      2314      2313      2315      2314      2313      2316      2315      2313      2316
      2313      2316      2317      2313      2316      2318      2313      2316      2319
      2317      2316      2318      2317      2316      2319      2318      2316      2319
      2316      2319      2320      2316      2319      2321      2316      2319      2322
      2320      2319      2321      2320      2319      2322      2321      2319      2322
      2319      2322      2323      2319      2322      2324      2319      2322      2325
      2323      2322      2324      2323      2322      2325      2324      2322      2325
      2322      2325      2326      2322      2325      2327      2322      2325      2328
      2326      2325      2327      2326      2325      2328      2327      2325      2328
      2325      2328      2329      2325      2328      2330      2325      2328      2331
      2329      2328      2330      2329      2328      2331      2330      2328      2331
      2328      2331      2332      2328      2331      2333      2328      2331      2334
      2332      2331      2333      2332      2331      2334      2333      2331      2334
      2331      2334      2335      2331      2334      2336      2331      2334      2337
      2335      2334      2336      2335      2334      2337      2336      2334      2337
      2334      2337      2338      2334      2337      2339      2334      2337      2340
      2338      2337      2339      2338      2337      2340      2339      2337      2340
      2342      2341      2346      2342      2341      2350      2342      2341      2354
      2346      2341      2350      2346      2341      2354      2350      2341      2354
      2341      2342      2343      2341      2342      2344      2341      2342      2345
      2343      2342      2344      2343      2342      2345      2344      2342      2345
      2341      2346      2347      2341      2346      2348      2341      2346      2349
      2347      2346      2348      2347      2346      2349      2348      2346      2349
      2341      2350      2351      2341      2350      2352      2341      2350      2353
      2351      2350      2352      2351      2350      2353      2352      2350      2353
      2341      2354      2355      2341      2354      2356      2341      2354      2357
      2355      2354      2356      2355      2354      2357      2356      2354      2357
      2354      2357      2358      2354      2357      2359      2354      2357      2364
      2358      2357      2359      2358      2357      2364      2359      2357      2364
      2361      2360      2362      2361      2360      2363      2361      2360      2364
      2362      2360      2363      2362      2360      2364      2363      2360      2364
      2360      2363      2365      2357      2364      2360      2363      2365      2366
      2363      2365      2367      2363      2365      2368      2366      2365      2367
      2366      2365      2368      2367      2365      2368      2365      2368      2369
      2365      2368      2370      2365      2368      2376      2369      2368      2370
      2369      2368      2376      2370      2368      2376      2368      2370      2371
      2370      2371      2372      2370      2371      2373      2372      2371      2373
      2371      2373      2374      2371      2373      2375      2371      2373      2385
      2374      2373      2375      2374      2373      2385      2375      2373      2385
      2368      2376      2377      2368      2376      2378      2368      2376      2379
      2377      2376      2378      2377      2376      2379      2378      2376      2379
      2376      2379      2380      2379      2380      2381      2379      2380      2382
      2381      2380      2382      2380      2382      2383      2380      2382      2384
      2380      2382      2428      2383      2382      2384      2383      2382      2428
      2384      2382      2428      2373      2385      2386      2373      2385      2387
      2373      2385      2388      2386      2385      2387      2386      2385      2388
      2387      2385      2388      2385      2388      2389      2385      2388      2390
      2385      2388      2391      2389      2388      2390      2389      2388      2391
      2390      2388      2391      2388      2391      2392      2388      2391      2393
      2388      2391      2394      2392      2391      2393      2392      2391      2394
      2393      2391      2394      2391      2394      2395      2391      2394      2396
      2391      2394      2397      2395      2394      2396      2395      2394      2397
      2396      2394      2397      2394      2397      2398      2394      2397      2399
      2394      2397      2400      2398      2397      2399      2398      2397      2400
      2399      2397      2400      2397      2400      2401      2397      2400      2402
      2397      2400      2403      2401      2400      2402      2401      2400      2403
      2402      2400      2403      2400      2403      2404      2400      2403      2405
      2400      2403      2406      2404      2403      2405      2404      2403      2406
      2405      2403      2406      2403      2406      2407      2403      2406      2408
      2403      2406      2409      2407      2406      2408      2407      2406      2409
      2408      2406      2409      2406      2409      2410      2406      2409      2411
      2406      2409      2412      2410      2409      2411      2410      2409      2412
      2411      2409      2412      2409      2412      2413      2409      2412      2414
      2409      2412      2415      2413      2412      2414      2413      2412      2415
      2414      2412      2415      2412      2415      2416      2412      2415      2417
      2412      2415      2418      2416      2415      2417      2416      2415      2418
      2417      2415      2418      2415      2418      2419      2415      2418      2420
      2415      2418      2421      2419      2418      2420      2419      2418      2421
      2420      2418      2421      2418      2421      2422      2418      2421      2423
      2418      2421      2424      2422      2421      2423      2422      2421      2424
      2423      2421      2424      2421      2424      2425      2421      2424      2426
      2421      2424      2427      2425      2424      2426      2425      2424      2427
      2426      2424      2427      2382      2428      2429      2382      2428      2430
      2382      2428      2431      2429      2428      2430      2429      2428      2431
      2430      2428      2431      2428      2431      2432      2428      2431      2433
      2428      2431      2434      2432      2431      2433      2432      2431      2434
      2433      2431      2434      2431      2434      2435      2431      2434      2436
      2431      2434      2437      2435      2434      2436      2435      2434      2437
      2436      2434      2437      2434      2437      2438      2434      2437      2439
      2434      2437      2440      2438      2437      2439      2438      2437      2440
      2439      2437      2440      2437      2440      2441      2437      2440      2442
      2437      2440      2443      2441      2440      2442      2441      2440      2443
      2442      2440      2443      2440      2443      2444      2440      2443      2445
      2440      2443      2446      2444      2443      2445      2444      2443      2446
      2445      2443      2446      2443      2446      2447      2443      2446      2448
      2443      2446      2449      2447      2446      2448      2447      2446      2449
      2448      2446      2449      2446      2449      2450      2446      2449      2451
      2446      2449      2452      2450      2449      2451      2450      2449      2452
      2451      2449      2452      2449      2452      2453      2449      2452      2454
      2449      2452      2455      2453      2452      2454      2453      2452      2455
      2454      2452      2455      2452      2455      2456      2452      2455      2457
      2452      2455      2458      2456      2455      2457      2456      2455      2458
      2457      2455      2458      2455      2458      2459      2455      2458      2460
      2455      2458      2461      2459      2458      2460      2459      2458      2461
      2460      2458      2461      2458      2461      2462      2458      2461      2463
      2458      2461      2464      2462      2461      2463      2462      2461      2464
      2463      2461      2464      2461      2464      2465      2461      2464      2466
      2461      2464      2467      2465      2464      2466      2465      2464      2467
      2466      2464      2467      2464      2467      2468      2464      2467      2469
      2464      2467      2470      2468      2467      2469      2468      2467      2470
      2469      2467      2470      2472      2471      2476      2472      2471      2480
      2472      2471      2484      2476      2471      2480      2476      2471      2484
      2480      2471      2484      2471      2472      2473      2471      2472      2474
      2471      2472      2475      2473      2472      2474      2473      2472      2475
      2474      2472      2475      2471      2476      2477      2471      2476      2478
      2471      2476      2479      2477      2476      2478      2477      2476      2479
      2478      2476      2479      2471      2480      2481      2471      2480      2482
      2471      2480      2483      2481      2480      2482      2481      2480      2483
      2482      2480      2483      2471      2484      2485      2471      2484      2486
      2471      2484      2487      2485      2484      2486      2485      2484      2487
      2486      2484      2487      2484      2487      2488      2484      2487      2489
      2484      2487      2494      2488      2487      2489      2488      2487      2494
      2489      2487      2494      2491      2490      2492      2491      2490      2493
      2491      2490      2494      2492      2490      2493      2492      2490      2494
      2493      2490      2494      2490      2493      2495      2487      2494      2490
      2493      2495      2496      2493      2495      2497      2493      2495      2498
      2496      2495      2497      2496      2495      2498      2497      2495      2498
      2495      2498      2499      2495      2498      2500      2495      2498      2506
      2499      2498      2500      2499      2498      2506      2500      2498      2506
      2498      2500      2501      2500      2501      2502      2500      2501      2503
      2502      2501      2503      2501      2503      2504      2501      2503      2505
      2501      2503      2515      2504      2503      2505      2504      2503      2515
      2505      2503      2515      2498      2506      2507      2498      2506      2508
      2498      2506      2509      2507      2506      2508      2507      2506      2509
      2508      2506      2509      2506      2509      2510      2509      2510      2511
      2509      2510      2512      2511      2510      2512      2510      2512      2513
      2510      2512      2514      2510      2512      2558      2513      2512      2514
      2513      2512      2558      2514      2512      2558      2503      2515      2516
      2503      2515      2517      2503      2515      2518      2516      2515      2517
      2516      2515      2518      2517      2515      2518      2515      2518      2519
      2515      2518      2520      2515      2518      2521      2519      2518      2520
      2519      2518      2521      2520      2518      2521      2518      2521      2522
      2518      2521      2523      2518      2521      2524      2522      2521      2523
      2522      2521      2524      2523      2521      2524      2521      2524      2525
      2521      2524      2526      2521      2524      2527      2525      2524      2526
      2525      2524      2527      2526      2524      2527      2524      2527      2528
      2524      2527      2529      2524      2527      2530      2528      2527      2529
      2528      2527      2530      2529      2527      2530      2527      2530      2531
      2527      2530      2532      2527      2530      2533      2531      2530      2532
      2531      2530      2533      2532      2530      2533      2530      2533      2534
      2530      2533      2535      2530      2533      2536      2534      2533      2535
      2534      2533      2536      2535      2533      2536      2533      2536      2537
      2533      2536      2538      2533      2536      2539      2537      2536      2538
      2537      2536      2539      2538      2536      2539      2536      2539      2540
      2536      2539      2541      2536      2539      2542      2540      2539      2541
      2540      2539      2542      2541      2539      2542      2539      2542      2543
      2539      2542      2544      2539      2542      2545      2543      2542      2544
      2543      2542      2545      2544      2542      2545      2542      2545      2546
      2542      2545      2547      2542      2545      2548      2546      2545      2547
      2546      2545      2548      2547      2545      2548      2545      2548      2549
      2545      2548      2550      2545      2548      2551      2549      2548      2550
      2549      2548      2551      2550      2548      2551      2548      2551      2552
      2548      2551      2553      2548      2551      2554      2552      2551      2553
      2552      2551      2554      2553      2551      2554      2551      2554      2555
      2551      2554      2556      2551      2554      2557      2555      2554      2556
      2555      2554      2557      2556      2554      2557      2512      2558      2559
      2512      2558      2560      2512      2558      2561      2559      2558      2560
      2559      2558      2561      2560      2558      2561      2558      2561      2562
      2558      2561      2563      2558      2561      2564      2562      2561      2563
      2562      2561      2564      2563      2561      2564      2561      2564      2565
      2561      2564      2566      2561      2564      2567      2565      2564      2566
      2565      2564      2567      2566      2564      2567      2564      2567      2568
      2564      2567      2569      2564      2567      2570      2568      2567      2569
      2568      2567      2570      2569      2567      2570      2567      2570      2571
      2567      2570      2572      2567      2570      2573      2571      2570      2572
      2571      2570      2573      2572      2570      2573      2570      2573      2574
      2570      2573      2575      2570      2573      2576      2574      2573      2575
      2574      2573      2576      2575      2573      2576      2573      2576      2577
      2573      2576      2578      2573      2576      2579      2577      2576      2578
      2577      2576      2579      2578      2576      2579      2576      2579      2580
      2576      2579      2581      2576      2579      2582      2580      2579      2581
      2580      2579      2582      2581      2579      2582      2579      2582      2583
      2579      2582      2584      2579      2582      2585      2583      2582      2584
      2583      2582      2585      2584      2582      2585      2582      2585      2586
      2582      2585      2587      2582      2585      2588      2586      2585      2587
      2586      2585      2588      2587      2585      2588      2585      2588      2589
      2585      2588      2590      2585      2588      2591      2589      2588      2590
      2589      2588      2591      2590      2588      2591      2588      2591      2592
      2588      2591      2593      2588      2591      2594      2592      2591      2593
      2592      2591      2594      2593      2591      2594      2591      2594      2595
      2591      2594      2596      2591      2594      2597      2595      2594      2596
      2595      2594      2597      2596      2594      2597      2594      2597      2598
      2594      2597      2599      2594      2597      2600      2598      2597      2599
      2598      2597      2600      2599      2597      2600      2602      2601      2606
      2602      2601      2610      2602      2601      2614      2606      2601      2610
      2606      2601      2614      2610      2601      2614      2601      2602      2603
      2601      2602      2604      2601      2602      2605      2603      2602      2604
      2603      2602      2605      2604      2602      2605      2601      2606      2607
      2601      2606      2608      2601      2606      2609      2607      2606      2608
      2607      2606      2609      2608      2606      2609      2601      2610      2611
      2601      2610      2612      2601      2610      2613      2611      2610      2612
      2611      2610      2613      2612      2610      2613      2601      2614      2615
      2601      2614      2616      2601      2614      2617      2615      2614      2616
      2615      2614      2617      2616      2614      2617      2614      2617      2618
      2614      2617      2619      2614      2617      2624      2618      2617      2619
      2618      2617      2624      2619      2617      2624      2621      2620      2622
      2621      2620      2623      2621      2620      2624      2622      2620      2623
      2622      2620      2624      2623      2620      2624      2620      2623      2625
      2617      2624      2620      2623      2625      2626      2623      2625      2627
      2623      2625      2628      2626      2625      2627      2626      2625      2628
      2627      2625      2628      2625      2628      2629      2625      2628      2630
      2625      2628      2636      2629      2628      2630      2629      2628      2636
      2630      2628      2636      2628      2630      2631      2630      2631      2632
      2630      2631      2633      2632      2631      2633      2631      2633      2634
      2631      2633      2635      2631      2633      2645      2634      2633      2635
      2634      2633      2645      2635      2633      2645      2628      2636      2637
      2628      2636      2638      2628      2636      2639      2637      2636      2638
      2637      2636      2639      2638      2636      2639      2636      2639      2640
      2639      2640      2641      2639      2640      2642      2641      2640      2642
      2640      2642      2643      2640      2642      2644      2640      2642      2688
      2643      2642      2644      2643      2642      2688      2644      2642      2688
      2633      2645      2646      2633      2645      2647      2633      2645      2648
      2646      2645      2647      2646      2645      2648      2647      2645      2648
      2645      2648      2649      2645      2648      2650      2645      2648      2651
      2649      2648      2650      2649      2648      2651      2650      2648      2651
      2648      2651      2652      2648      2651      2653      2648      2651      2654
      2652      2651      2653      2652      2651      2654      2653      2651      2654
      2651      2654      2655      2651      2654      2656      2651      2654      2657
      2655      2654      2656      2655      2654      2657      2656      2654      2657
      2654      2657      2658      2654      2657      2659      2654      2657      2660
      2658      2657      2659      2658      2657      2660      2659      2657      2660
      2657      2660      2661      2657      2660      2662      2657      2660      2663
      2661      2660      2662      2661      2660      2663      2662      2660      2663
      2660      2663      2664      2660      2663      2665      2660      2663      2666
      2664      2663      2665      2664      2663      2666      2665      2663      2666
      2663      2666      2667      2663      2666      2668      2663      2666      2669
      2667      2666      2668      2667      2666      2669      2668      2666      2669
      2666      2669      2670      2666      2669      2671      2666      2669      2672
      2670      2669      2671      2670      2669      2672      2671      2669      2672
      2669      2672      2673      2669      2672      2674      2669      2672      2675
      2673      2672      2674      2673      2672      2675      2674      2672      2675
      2672      2675      2676      2672      2675      2677      2672      2675      2678
      2676      2675      2677      2676      2675      2678      2677      2675      2678
      2675      2678      2679      2675      2678      2680      2675      2678      2681
      2679      2678      2680      2679      2678      2681      2680      2678      2681
      2678      2681      2682      2678      2681      2683      2678      2681      2684
      2682      2681      2683      2682      2681      2684      2683      2681      2684
      2681      2684      2685      2681      2684      2686      2681      2684      2687
      2685      2684      2686      2685      2684      2687      2686      2684      2687
      2642      2688      2689      2642      2688      2690      2642      2688      2691
      2689      2688      2690      2689      2688      2691      2690      2688      2691
      2688      2691      2692      2688      2691      2693      2688      2691      2694
      2692      2691      2693      2692      2691      2694      2693      2691      2694
      2691      2694      2695      2691      2694      2696      2691      2694      2697
      2695      2694      2696      2695      2694      2697      2696      2694      2697
      2694      2697      2698      2694      2697      2699      2694      2697      2700
      2698      2697      2699      2698      2697      2700      2699      2697      2700
      2697      2700      2701      2697      2700      2702      2697      2700      2703
      2701      2700      2702      2701      2700      2703      2702      2700      2703
      2700      2703      2704      2700      2703      2705      2700      2703      2706
      2704      2703      2705      2704      2703      2706      2705      2703      2706
      2703      2706      2707      2703      2706      2708      2703      2706      2709
      2707      2706      2708      2707      2706      2709      2708      2706      2709
      2706      2709      2710      2706      2709      2711      2706      2709      2712
      2710      2709      2711      2710      2709      2712      2711      2709      2712
      2709      2712      2713      2709      2712      2714      2709      2712      2715
      2713      2712      2714      2713      2712      2715      2714      2712      2715
      2712      2715      2716      2712      2715      2717      2712      2715      2718
      2716      2715      2717      2716      2715      2718      2717      2715      2718
      2715      2718      2719      2715      2718      2720      2715      2718      2721
      2719      2718      2720      2719      2718      2721      2720      2718      2721
      2718      2721      2722      2718      2721      2723      2718      2721      2724
      2722      2721      2723      2722      2721      2724      2723      2721      2724
      2721      2724      2725      2721      2724      2726      2721      2724      2727
      2725      2724      2726      2725      2724      2727      2726      2724      2727
      2724      2727      2728      2724      2727      2729      2724      2727      2730
      2728      2727      2729      2728      2727      2730      2729      2727      2730
      2732      2731      2736      2732      2731      2740      2732      2731      2744
      2736      2731      2740      2736      2731      2744      2740      2731      2744
      2731      2732      2733      2731      2732      2734      2731      2732      2735
      2733      2732      2734      2733      2732      2735      2734      2732      2735
      2731      2736      2737      2731      2736      2738      2731      2736      2739
      2737      2736      2738      2737      2736      2739      2738      2736      2739
      2731      2740      2741      2731      2740      2742      2731      2740      2743
      2741      2740      2742      2741      2740      2743      2742      2740      2743
      2731      2744      2745      2731      2744      2746      2731      2744      2747
      2745      2744      2746      2745      2744      2747      2746      2744      2747
      2744      2747      2748      2744      2747      2749      2744      2747      2754
      2748      2747      2749      2748      2747      2754      2749      2747      2754
      2751      2750      2752      2751      2750      2753      2751      2750      2754
      2752      2750      2753      2752      2750      2754      2753      2750      2754
      2750      2753      2755      2747      2754      2750      2753      2755      2756
      2753      2755      2757      2753      2755      2758      2756      2755      2757
      2756      2755      2758      2757      2755      2758      2755      2758      2759
      2755      2758      2760      2755      2758      2766      2759      2758      2760
      2759      2758      2766      2760      2758      2766      2758      2760      2761
      2760      2761      2762      2760      2761      2763      2762      2761      2763
      2761      2763      2764      2761      2763      2765      2761      2763      2775
      2764      2763      2765      2764      2763      2775      2765      2763      2775
      2758      2766      2767      2758      2766      2768      2758      2766      2769
      2767      2766      2768      2767      2766      2769      2768      2766      2769
      2766      2769      2770      2769      2770      2771      2769      2770      2772
      2771      2770      2772      2770      2772      2773      2770      2772      2774
      2770      2772      2818      2773      2772      2774      2773      2772      2818
      2774      2772      2818      2763      2775      2776      2763      2775      2777
      2763      2775      2778      2776      2775      2777      2776      2775      2778
      2777      2775      2778      2775      2778      2779      2775      2778      2780
      2775      2778      2781      2779      2778      2780      2779      2778      2781
      2780      2778      2781      2778      2781      2782      2778      2781      2783
      2778      2781      2784      2782      2781      2783      2782      2781      2784
      2783      2781      2784      2781      2784      2785      2781      2784      2786
      2781      2784      2787      2785      2784      2786      2785      2784      2787
      2786      2784      2787      2784      2787      2788      2784      2787      2789
      2784      2787      2790      2788      2787      2789      2788      2787      2790
      2789      2787      2790      2787      2790      2791      2787      2790      2792
      2787      2790      2793      2791      2790      2792      2791      2790      2793
      2792      2790      2793      2790      2793      2794      2790      2793      2795
      2790      2793      2796      2794      2793      2795      2794      2793      2796
      2795      2793      2796      2793      2796      2797      2793      2796      2798
      2793      2796      2799      2797      2796      2798      2797      2796      2799
      2798      2796      2799      2796      2799      2800      2796      2799      2801
      2796      2799      2802      2800      2799      2801      2800      2799      2802
      2801      2799      2802      2799      2802      2803      2799      2802      2804
      2799      2802      2805      2803      2802      2804      2803      2802      2805
      2804      2802      2805      2802      2805      2806      2802      2805      2807
      2802      2805      2808      2806      2805      2807      2806      2805      2808
      2807      2805      2808      2805      2808      2809      2805      2808      2810
      2805      2808      2811      2809      2808      2810      2809      2808      2811
      2810      2808      2811      2808      2811      2812      2808      2811      2813
      2808      2811      2814      2812      2811      2813      2812      2811      2814
      2813      2811      2814      2811      2814      2815      2811      2814      2816
      2811      2814      2817      2815      2814      2816      2815      2814      2817
      2816      2814      2817      2772      2818      2819      2772      2818      2820
      2772      2818      2821      2819      2818      2820      2819      2818      2821
      2820      2818      2821      2818      2821      2822      2818      2821      2823
      2818      2821      2824      2822      2821      2823      2822      2821      2824
      2823      2821      2824      2821      2824      2825      2821      2824      2826
      2821      2824      2827      2825      2824      2826      2825      2824      2827
      2826      2824      2827      2824      2827      2828      2824      2827      2829
      2824      2827      2830      2828      2827      2829      2828      2827      2830
      2829      2827      2830      2827      2830      2831      2827      2830      2832
      2827      2830      2833      2831      2830      2832      2831      2830      2833
      2832      2830      2833      2830      2833      2834      2830      2833      2835
      2830      2833      2836      2834      2833      2835      2834      2833      2836
      2835      2833      2836      2833      2836      2837      2833      2836      2838
      2833      2836      2839      2837      2836      2838      2837      2836      2839
      2838      2836      2839      2836      2839      2840      2836      2839      2841
      2836      2839      2842      2840      2839      2841      2840      2839      2842
      2841      2839      2842      2839      2842      2843      2839      2842      2844
      2839      2842      2845      2843      2842      2844      2843      2842      2845
      2844      2842      2845      2842      2845      2846      2842      2845      2847
      2842      2845      2848      2846      2845      2847      2846      2845      2848
      2847      2845      2848      2845      2848      2849      2845      2848      2850
      2845      2848      2851      2849      2848      2850      2849      2848      2851
      2850      2848      2851      2848      2851      2852      2848      2851      2853
      2848      2851      2854      2852      2851      2853      2852      2851      2854
      2853      2851      2854      2851      2854      2855      2851      2854      2856
      2851      2854      2857      2855      2854      2856      2855      2854      2857
      2856      2854      2857      2854      2857      2858      2854      2857      2859
      2854      2857      2860      2858      2857      2859      2858      2857      2860
      2859      2857      2860      2862      2861      2866      2862      2861      2870
      2862      2861      2874      2866      2861      2870      2866      2861      2874
      2870      2861      2874      2861      2862      2863      2861      2862      2864
      2861      2862      2865      2863      2862      2864      2863      2862      2865
      2864      2862      2865      2861      2866      2867      2861      2866      2868
      2861      2866      2869      2867      2866      2868      2867      2866      2869
      2868      2866      2869      2861      2870      2871      2861      2870      2872
      2861      2870      2873      2871      2870      2872      2871      2870      2873
      2872      2870      2873      2861      2874      2875      2861      2874      2876
      2861      2874      2877      2875      2874      2876      2875      2874      2877
      2876      2874      2877      2874      2877      2878      2874      2877      2879
      2874      2877      2884      2878      2877      2879      2878      2877      2884
      2879      2877      2884      2881      2880      2882      2881      2880      2883
      2881      2880      2884      2882      2880      2883      2882      2880      2884
      2883      2880      2884      2880      2883      2885      2877      2884      2880
      2883      2885      2886      2883      2885      2887      2883      2885      2888
      2886      2885      2887      2886      2885      2888      2887      2885      2888
      2885      2888      2889      2885      2888      2890      2885      2888      2896
      2889      2888      2890      2889      2888      2896      2890      2888      2896
      2888      2890      2891      2890      2891      2892      2890      2891      2893
      2892      2891      2893      2891      2893      2894      2891      2893      2895
      2891      2893      2905      2894      2893      2895      2894      2893      2905
      2895      2893      2905      2888      2896      2897      2888      2896      2898
      2888      2896      2899      2897      2896      2898      2897      2896      2899
      2898      2896      2899      2896      2899      2900      2899      2900      2901
      2899      2900      2902      2901      2900      2902      2900      2902      2903
      2900      2902      2904      2900      2902      2948      2903      2902      2904
      2903      2902      2948      2904      2902      2948      2893      2905      2906
      2893      2905      2907      2893      2905      2908      2906      2905      2907
      2906      2905      2908      2907      2905      2908      2905      2908      2909
      2905      2908      2910      2905      2908      2911      2909      2908      2910
      2909      2908      2911      2910      2908      2911      2908      2911      2912
      2908      2911      2913      2908      2911      2914      2912      2911      2913
      2912      2911      2914      2913      2911      2914      2911      2914      2915
      2911      2914      2916      2911      2914      2917      2915      2914      2916
      2915      2914      2917      2916      2914      2917      2914      2917      2918
      2914      2917      2919      2914      2917      2920      2918      2917      2919
      2918      2917      2920      2919      2917      2920      2917      2920      2921
      2917      2920      2922      2917      2920      2923      2921      2920      2922
      2921      2920      2923      2922      2920      2923      2920      2923      2924
      2920      2923      2925      2920      2923      2926      2924      2923      2925
      2924      2923      2926      2925      2923      2926      2923      2926      2927
      2923      2926      2928      2923      2926      2929      2927      2926      2928
      2927      2926      2929      2928      2926      2929      2926      2929      2930
      2926      2929      2931      2926      2929      2932      2930      2929      2931
      2930      2929      2932      2931      2929      2932      2929      2932      2933
      2929      2932      2934      2929      2932      2935      2933      2932      2934
      2933      2932      2935      2934      2932      2935      2932      2935      2936
      2932      2935      2937      2932      2935      2938      2936      2935      2937
      2936      2935      2938      2937      2935      2938      2935      2938      2939
      2935      2938      2940      2935      2938      2941      2939      2938      2940
      2939      2938      2941      2940      2938      2941      2938      2941      2942
      2938      2941      2943      2938      2941      2944      2942      2941      2943
      2942      2941      2944      2943      2941      2944      2941      2944      2945
      2941      2944      2946      2941      2944      2947      2945      2944      2946
      2945      2944      2947      2946      2944      2947      2902      2948      2949
      2902      2948      2950      2902      2948      2951      2949      2948      2950
      2949      2948      2951      2950      2948      2951      2948      2951      2952
      2948      2951      2953      2948      2951      2954      2952      2951      2953
      2952      2951      2954      2953      2951      2954      2951      2954      2955
      2951      2954      2956      2951      2954      2957      2955      2954      2956
      2955      2954      2957      2956      2954      2957      2954      2957      2958
      2954      2957      2959      2954      2957      2960      2958      2957      2959
      2958      2957      2960      2959      2957      2960      2957      2960      2961
      2957      2960      2962      2957      2960      2963      2961      2960      2962
      2961      2960      2963      2962      2960      2963      2960      2963      2964
      2960      2963      2965      2960      2963      2966      2964      2963      2965
      2964      2963      2966      2965      2963      2966      2963      2966      2967
      2963      2966      2968      2963      2966      2969      2967      2966      2968
      2967      2966      2969      2968      2966      2969      2966      2969      2970
      2966      2969      2971      2966      2969      2972      2970      2969      2971
      2970      2969      2972      2971      2969      2972      2969      2972      2973
      2969      2972      2974      2969      2972      2975      2973      2972      2974
      2973      2972      2975      2974      2972      2975      2972      2975      2976
      2972      2975      2977      2972      2975      2978      2976      2975      2977
      2976      2975      2978      2977      2975      2978      2975      2978      2979
      2975      2978      2980      2975      2978      2981      2979      2978      2980
      2979      2978      2981      2980      2978      2981      2978      2981      2982
      2978      2981      2983      2978      2981      2984      2982      2981      2983
      2982      2981      2984      2983      2981      2984      2981      2984      2985
      2981      2984      2986      2981      2984      2987      2985      2984      2986
      2985      2984      2987      2986      2984      2987      2984      2987      2988
      2984      2987      2989      2984      2987      2990      2988      2987      2989
      2988      2987      2990      2989      2987      2990      2992      2991      2996
      2992      2991      3000      2992      2991      3004      2996      2991      3000
      2996      2991      3004      3000      2991      3004      2991      2992      2993
      2991      2992      2994      2991      2992      2995      2993      2992      2994
      2993      2992      2995      2994      2992      2995      2991      2996      2997
      2991      2996      2998      2991      2996      2999      2997      2996      2998
      2997      2996      2999      2998      2996      2999      2991      3000      3001
      2991      3000      3002      2991      3000      3003      3001      3000      3002
      3001      3000      3003      3002      3000      3003      2991      3004      3005
      2991      3004      3006      2991      3004      3007      3005      3004      3006
      3005      3004      3007      3006      3004      3007      3004      3007      3008
      3004      3007      3009      3004      3007      3014      3008      3007      3009
      3008      3007      3014      3009      3007      3014      3011      3010      3012
      3011      3010      3013      3011      3010      3014      3012      3010      3013
      3012      3010      3014      3013      3010      3014      3010      3013      3015
      3007      3014      3010      3013      3015      3016      3013      3015      3017
      3013      3015      3018      3016      3015      3017      3016      3015      3018
      3017      3015      3018      3015      3018      3019      3015      3018      3020
      3015      3018      3026      3019      3018      3020      3019      3018      3026
      3020      3018      3026      3018      3020      3021      3020      3021      3022
      3020      3021      3023      3022      3021      3023      3021      3023      3024
      3021      3023      3025      3021      3023      3035      3024      3023      3025
      3024      3023      3035      3025      3023      3035      3018      3026      3027
      3018      3026      3028      3018      3026      3029      3027      3026      3028
      3027      3026      3029      3028      3026      3029      3026      3029      3030
      3029      3030      3031      3029      3030      3032      3031      3030      3032
      3030      3032      3033      3030      3032      3034      3030      3032      3078
      3033      3032      3034      3033      3032      3078      3034      3032      3078
      3023      3035      3036      3023      3035      3037      3023      3035      3038
      3036      3035      3037      3036      3035      3038      3037      3035      3038
      3035      3038      3039      3035      3038      3040      3035      3038      3041
      3039      3038      3040      3039      3038      3041      3040      3038      3041
      3038      3041      3042      3038      3041      3043      3038      3041      3044
      3042      3041      3043      3042      3041      3044      3043      3041      3044
      3041      3044      3045      3041      3044      3046      3041      3044      3047
      3045      3044      3046      3045      3044      3047      3046      3044      3047
      3044      3047      3048      3044      3047      3049      3044      3047      3050
      3048      3047      3049      3048      3047      3050      3049      3047      3050
      3047      3050      3051      3047      3050      3052      3047      3050      3053
      3051      3050      3052      3051      3050      3053      3052      3050      3053
      3050      3053      3054      3050      3053      3055      3050      3053      3056
      3054      3053      3055      3054      3053      3056      3055      3053      3056
      3053      3056      3057      3053      3056      3058      3053      3056      3059
      3057      3056      3058      3057      3056      3059      3058      3056      3059
      3056      3059      3060      3056      3059      3061      3056      3059      3062
      3060      3059      3061      3060      3059      3062      3061      3059      3062
      3059      3062      3063      3059      3062      3064      3059      3062      3065
      3063      3062      3064      3063      3062      3065      3064      3062      3065
      3062      3065      3066      3062      3065      3067      3062      3065      3068
      3066      3065      3067      3066      3065      3068      3067      3065      3068
      3065      3068      3069      3065      3068      3070      3065      3068      3071
      3069      3068      3070      3069      3068      3071      3070      3068      3071
      3068      3071      3072      3068      3071      3073      3068      3071      3074
      3072      3071      3073      3072      3071      3074      3073      3071      3074
      3071      3074      3075      3071      3074      3076      3071      3074      3077
      3075      3074      3076      3075      3074      3077      3076      3074      3077
      3032      3078      3079      3032      3078      3080      3032      3078      3081
      3079      3078      3080      3079      3078      3081      3080      3078      3081
      3078      3081      3082      3078      3081      3083      3078      3081      3084
      3082      3081      3083      3082      3081      3084      3083      3081      3084
      3081      3084      3085      3081      3084      3086      3081      3084      3087
      3085      3084      3086      3085      3084      3087      3086      3084      3087
      3084      3087      3088      3084      3087      3089      3084      3087      3090
      3088      3087      3089      3088      3087      3090      3089      3087      3090
      3087      3090      3091      3087      3090      3092      3087      3090      3093
      3091      3090      3092      3091      3090      3093      3092      3090      3093
      3090      3093      3094      3090      3093      3095      3090      3093      3096
      3094      3093      3095      3094      3093      3096      3095      3093      3096
      3093      3096      3097      3093      3096      3098      3093      3096      3099
      3097      3096      3098      3097      3096      3099      3098      3096      3099
      3096      3099      3100      3096      3099      3101      3096      3099      3102
      3100      3099      3101      3100      3099      3102      3101      3099      3102
      3099      3102      3103      3099      3102      3104      3099      3102      3105
      3103      3102      3104      3103      3102      3105      3104      3102      3105
      3102      3105      3106      3102      3105      3107      3102      3105      3108
      3106      3105      3107      3106      3105      3108      3107      3105      3108
      3105      3108      3109      3105      3108      3110      3105      3108      3111
      3109      3108      3110      3109      3108      3111      3110      3108      3111
      3108      3111      3112      3108      3111      3113      3108      3111      3114
      3112      3111      3113      3112      3111      3114      3113      3111      3114
      3111      3114      3115      3111      3114      3116      3111      3114      3117
      3115      3114      3116      3115      3114      3117      3116      3114      3117
      3114      3117      3118      3114      3117      3119      3114      3117      3120
      3118      3117      3119      3118      3117      3120      3119      3117      3120
      3122      3121      3126      3122      3121      3130      3122      3121      3134
      3126      3121      3130      3126      3121      3134      3130      3121      3134
      3121      3122      3123      3121      3122      3124      3121      3122      3125
      3123      3122      3124      3123      3122      3125      3124      3122      3125
      3121      3126      3127      3121      3126      3128      3121      3126      3129
      3127      3126      3128      3127      3126      3129      3128      3126      3129
      3121      3130      3131      3121      3130      3132      3121      3130      3133
      3131      3130      3132      3131      3130      3133      3132      3130      3133
      3121      3134      3135      3121      3134      3136      3121      3134      3137
      3135      3134      3136      3135      3134      3137      3136      3134      3137
      3134      3137      3138      3134      3137      3139      3134      3137      3144
      3138      3137      3139      3138      3137      3144      3139      3137      3144
      3141      3140      3142      3141      3140      3143      3141      3140      3144
      3142      3140      3143      3142      3140      3144      3143      3140      3144
      3140      3143      3145      3137      3144      3140      3143      3145      3146
      3143      3145      3147      3143      3145      3148      3146      3145      3147
      3146      3145      3148      3147      3145      3148      3145      3148      3149
      3145      3148      3150      3145      3148      3156      3149      3148      3150
      3149      3148      3156      3150      3148      3156      3148      3150      3151
      3150      3151      3152      3150      3151      3153      3152      3151      3153
      3151      3153      3154      3151      3153      3155      3151      3153      3165
      3154      3153      3155      3154      3153      3165      3155      3153      3165
      3148      3156      3157      3148      3156      3158      3148      3156      3159
      3157      3156      3158      3157      3156      3159      3158      3156      3159
      3156      3159      3160      3159      3160      3161      3159      3160      3162
      3161      3160      3162      3160      3162      3163      3160      3162      3164
      3160      3162      3208      3163      3162      3164      3163      3162      3208
      3164      3162      3208      3153      3165      3166      3153      3165      3167
      3153      3165      3168      3166      3165      3167      3166      3165      3168
      3167      3165      3168      3165      3168      3169      3165      3168      3170
      3165      3168      3171      3169      3168      3170      3169      3168      3171
      3170      3168      3171      3168      3171      3172      3168      3171      3173
      3168      3171      3174      3172      3171      3173      3172      3171      3174
      3173      3171      3174      3171      3174      3175      3171      3174      3176
      3171      3174      3177      3175      3174      3176      3175      3174      3177
      3176      3174      3177      3174      3177      3178      3174      3177      3179
      3174      3177      3180      3178      3177      3179      3178      3177      3180
      3179      3177      3180      3177      3180      3181      3177      3180      3182
      3177      3180      3183      3181      3180      3182      3181      3180      3183
      3182      3180      3183      3180      3183      3184      3180      3183      3185
      3180      3183      3186      3184      3183      3185      3184      3183      3186
      3185      3183      3186      3183      3186      3187      3183      3186      3188
      3183      3186      3189      3187      3186      3188      3187      3186      3189
      3188      3186      3189      3186      3189      3190      3186      3189      3191
      3186      3189      3192      3190      3189      3191      3190      3189      3192
      3191      3189      3192      3189      3192      3193      3189      3192      3194
      3189      3192      3195      3193      3192      3194      3193      3192      3195
      3194      3192      3195      3192      3195      3196      3192      3195      3197
      3192      3195      3198      3196      3195      3197      3196      3195      3198
      3197      3195      3198      3195      3198      3199      3195      3198      3200
      3195      3198      3201      3199      3198      3200      3199      3198      3201
      3200      3198      3201      3198      3201      3202      3198      3201      3203
      3198      3201      3204      3202      3201      3203      3202      3201      3204
      3203      3201      3204      3201      3204      3205      3201      3204      3206
      3201      3204      3207      3205      3204      3206      3205      3204      3207
      3206      3204      3207      3162      3208      3209      3162      3208      3210
      3162      3208      3211      3209      3208      3210      3209      3208      3211
      3210      3208      3211      3208      3211      3212      3208      3211      3213
      3208      3211      3214      3212      3211      3213      3212      3211      3214
      3213      3211      3214      3211      3214      3215      3211      3214      3216
      3211      3214      3217      3215      3214      3216      3215      3214      3217
      3216      3214      3217      3214      3217      3218      3214      3217      3219
      3214      3217      3220      3218      3217      3219      3218      3217      3220
      3219      3217      3220      3217      3220      3221      3217      3220      3222
      3217      3220      3223      3221      3220      3222      3221      3220      3223
      3222      3220      3223      3220      3223      3224      3220      3223      3225
      3220      3223      3226      3224      3223      3225      3224      3223      3226
      3225      3223      3226      3223      3226      3227      3223      3226      3228
      3223      3226      3229      3227      3226      3228      3227      3226      3229
      3228      3226      3229      3226      3229      3230      3226      3229      3231
      3226      3229      3232      3230      3229      3231      3230      3229      3232
      3231      3229      3232      3229      3232      3233      3229      3232      3234
      3229      3232      3235      3233      3232      3234      3233      3232      3235
      3234      3232      3235      3232      3235      3236      3232      3235      3237
      3232      3235      3238      3236      3235      3237      3236      3235      3238
      3237      3235      3238      3235      3238      3239      3235      3238      3240
      3235      3238      3241      3239      3238      3240      3239      3238      3241
      3240      3238      3241      3238      3241      3242      3238      3241      3243
      3238      3241      3244      3242      3241      3243      3242      3241      3244
      3243      3241      3244      3241      3244      3245      3241      3244      3246
      3241      3244      3247      3245      3244      3246      3245      3244      3247
      3246      3244      3247      3244      3247      3248      3244      3247      3249
      3244      3247      3250      3248      3247      3249      3248      3247      3250
      3249      3247      3250      3252      3251      3256      3252      3251      3260
      3252      3251      3264      3256      3251      3260      3256      3251      3264
      3260      3251      3264      3251      3252      3253      3251      3252      3254
      3251      3252      3255      3253      3252      3254      3253      3252      3255
      3254      3252      3255      3251      3256      3257      3251      3256      3258
      3251      3256      3259      3257      3256      3258      3257      3256      3259
      3258      3256      3259      3251      3260      3261      3251      3260      3262
      3251      3260      3263      3261      3260      3262      3261      3260      3263
      3262      3260      3263      3251      3264      3265      3251      3264      3266
      3251      3264      3267      3265      3264      3266      3265      3264      3267
      3266      3264      3267      3264      3267      3268      3264      3267      3269
      3264      3267      3274      3268      3267      3269      3268      3267      3274
      3269      3267      3274      3271      3270      3272      3271      3270      3273
      3271      3270      3274      3272      3270      3273      3272      3270      3274
      3273      3270      3274      3270      3273      3275      3267      3274      3270
      3273      3275      3276      3273      3275      3277      3273      3275      3278
      3276      3275      3277      3276      3275      3278      3277      3275      3278
      3275      3278      3279      3275      3278      3280      3275      3278      3286
      3279      3278      3280      3279      3278      3286      3280      3278      3286
      3278      3280      3281      3280      3281      3282      3280      3281      3283
      3282      3281      3283      3281      3283      3284      3281      3283      3285
      3281      3283      3295      3284      3283      3285      3284      3283      3295
      3285      3283      3295      3278      3286      3287      3278      3286      3288
      3278      3286      3289      3287      3286      3288      3287      3286      3289
      3288      3286      3289      3286      3289      3290      3289      3290      3291
      3289      3290      3292      3291      3290      3292      3290      3292      3293
      3290      3292      3294      3290      3292      3338      3293      3292      3294
      3293      3292      3338      3294      3292      3338      3283      3295      3296
      3283      3295      3297      3283      3295      3298      3296      3295      3297
      3296      3295      3298      3297      3295      3298      3295      3298      3299
      3295      3298      3300      3295      3298      3301      3299      3298      3300
      3299      3298      3301      3300      3298      3301      3298      3301      3302
      3298      3301      3303      3298      3301      3304      3302      3301      3303
      3302      3301      3304      3303      3301      3304      3301      3304      3305
      3301      3304      3306      3301      3304      3307      3305      3304      3306
      3305      3304      3307      3306      3304      3307      3304      3307      3308
      3304      3307      3309      3304      3307      3310      3308      3307      3309
      3308      3307      3310      3309      3307      3310      3307      3310      3311
      3307      3310      3312      3307      3310      3313      3311      3310      3312
      3311      3310      3313      3312      3310      3313      3310      3313      3314
      3310      3313      3315      3310      3313      3316      3314      3313      3315
      3314      3313      3316      3315      3313      3316      3313      3316      3317
      3313      3316      3318      3313      3316      3319      3317      3316      3318
      3317      3316      3319      3318      3316      3319      3316      3319      3320
      3316      3319      3321      3316      3319      3322      3320      3319      3321
      3320      3319      3322      3321      3319      3322      3319      3322      3323
      3319      3322      3324      3319      3322      3325      3323      3322      3324
      3323      3322      3325      3324      3322      3325      3322      3325      3326
      3322      3325      3327      3322      3325      3328      3326      3325      3327
      3326      3325      3328      3327      3325      3328      3325      3328      3329
      3325      3328      3330      3325      3328      3331      3329      3328      3330
      3329      3328      3331      3330      3328      3331      3328      3331      3332
      3328      3331      3333      3328      3331      3334      3332      3331      3333
      3332      3331      3334      3333      3331      3334      3331      3334      3335
      3331      3334      3336      3331      3334      3337      3335      3334      3336
      3335      3334      3337      3336      3334      3337      3292      3338      3339
      3292      3338      3340      3292      3338      3341      3339      3338      3340
      3339      3338      3341      3340      3338      3341      3338      3341      3342
      3338      3341      3343      3338      3341      3344      3342      3341      3343
      3342      3341      3344      3343      3341      3344      3341      3344      3345
      3341      3344      3346      3341      3344      3347      3345      3344      3346
      3345      3344      3347      3346      3344      3347      3344      3347      3348
      3344      3347      3349      3344      3347      3350      3348      3347      3349
      3348      3347      3350      3349      3347      3350      3347      3350      3351
      3347      3350      3352      3347      3350      3353      3351      3350      3352
      3351      3350      3353      3352      3350      3353      3350      3353      3354
      3350      3353      3355      3350      3353      3356      3354      3353      3355
      3354      3353      3356      3355      3353      3356      3353      3356      3357
      3353      3356      3358      3353      3356      3359      3357      3356      3358
      3357      3356      3359      3358      3356      3359      3356      3359      3360
      3356      3359      3361      3356      3359      3362      3360      3359      3361
      3360      3359      3362      3361      3359      3362      3359      3362      3363
      3359      3362      3364      3359      3362      3365      3363      3362      3364
      3363      3362      3365      3364      3362      3365      3362      3365      3366
      3362      3365      3367      3362      3365      3368      3366      3365      3367
      3366      3365      3368      3367      3365      3368      3365      3368      3369
      3365      3368      3370      3365      3368      3371      3369      3368      3370
      3369      3368      3371      3370      3368      3371      3368      3371      3372
      3368      3371      3373      3368      3371      3374      3372      3371      3373
      3372      3371      3374      3373      3371      3374      3371      3374      3375
      3371      3374      3376      3371      3374      3377      3375      3374      3376
      3375      3374      3377      3376      3374      3377      3374      3377      3378
      3374      3377      3379      3374      3377      3380      3378      3377      3379
      3378      3377      3380      3379      3377      3380      3382      3381      3386
      3382      3381      3390      3382      3381      3394      3386      3381      3390
      3386      3381      3394      3390      3381      3394      3381      3382      3383
      3381      3382      3384      3381      3382      3385      3383      3382      3384
      3383      3382      3385      3384      3382      3385      3381      3386      3387
      3381      3386      3388      3381      3386      3389      3387      3386      3388
      3387      3386      3389      3388      3386      3389      3381      3390      3391
      3381      3390      3392      3381      3390      3393      3391      3390      3392
      3391      3390      3393      3392      3390      3393      3381      3394      3395
      3381      3394      3396      3381      3394      3397      3395      3394      3396
      3395      3394      3397      3396      3394      3397      3394      3397      3398
      3394      3397      3399      3394      3397      3404      3398      3397      3399
      3398      3397      3404      3399      3397      3404      3401      3400      3402
      3401      3400      3403      3401      3400      3404      3402      3400      3403
      3402      3400      3404      3403      3400      3404      3400      3403      3405
      3397      3404      3400      3403      3405      3406      3403      3405      3407
      3403      3405      3408      3406      3405      3407      3406      3405      3408
      3407      3405      3408      3405      3408      3409      3405      3408      3410
      3405      3408      3416      3409      3408      3410      3409      3408      3416
      3410      3408      3416      3408      3410      3411      3410      3411      3412
      3410      3411      3413      3412      3411      3413      3411      3413      3414
      3411      3413      3415      3411      3413      3425      3414      3413      3415
      3414      3413      3425      3415      3413      3425      3408      3416      3417
      3408      3416      3418      3408      3416      3419      3417      3416      3418
      3417      3416      3419      3418      3416      3419      3416      3419      3420
      3419      3420      3421      3419      3420      3422      3421      3420      3422
      3420      3422      3423      3420      3422      3424      3420      3422      3468
      3423      3422      3424      3423      3422      3468      3424      3422      3468
      3413      3425      3426      3413      3425      3427      3413      3425      3428
      3426      3425      3427      3426      3425      3428      3427      3425      3428
      3425      3428      3429      3425      3428      3430      3425      3428      3431
      3429      3428      3430      3429      3428      3431      3430      3428      3431
      3428      3431      3432      3428      3431      3433      3428      3431      3434
      3432      3431      3433      3432      3431      3434      3433      3431      3434
      3431      3434      3435      3431      3434      3436      3431      3434      3437
      3435      3434      3436      3435      3434      3437      3436      3434      3437
      3434      3437      3438      3434      3437      3439      3434      3437      3440
      3438      3437      3439      3438      3437      3440      3439      3437      3440
      3437      3440      3441      3437      3440      3442      3437      3440      3443
      3441      3440      3442      3441      3440      3443      3442      3440      3443
      3440      3443      3444      3440      3443      3445      3440      3443      3446
      3444      3443      3445      3444      3443      3446      3445      3443      3446
      3443      3446      3447      3443      3446      3448      3443      3446      3449
      3447      3446      3448      3447      3446      3449      3448      3446      3449
      3446      3449      3450      3446      3449      3451      3446      3449      3452
      3450      3449      3451      3450      3449      3452      3451      3449      3452
      3449      3452      3453      3449      3452      3454      3449      3452      3455
      3453      3452      3454      3453      3452      3455      3454      3452      3455
      3452      3455      3456      3452      3455      3457      3452      3455      3458
      3456      3455      3457      3456      3455      3458      3457      3455      3458
      3455      3458      3459      3455      3458      3460      3455      3458      3461
      3459      3458      3460      3459      3458      3461      3460      3458      3461
      3458      3461      3462      3458      3461      3463      3458      3461      3464
      3462      3461      3463      3462      3461      3464      3463      3461      3464
      3461      3464      3465      3461      3464      3466      3461      3464      3467
      3465      3464      3466      3465      3464      3467      3466      3464      3467
      3422      3468      3469      3422      3468      3470      3422      3468      3471
      3469      3468      3470      3469      3468      3471      3470      3468      3471
      3468      3471      3472      3468      3471      3473      3468      3471      3474
      3472      3471      3473      3472      3471      3474      3473      3471      3474
      3471      3474      3475      3471      3474      3476      3471      3474      3477
      3475      3474      3476      3475      3474      3477      3476      3474      3477
      3474      3477      3478      3474      3477      3479      3474      3477      3480
      3478      3477      3479      3478      3477      3480      3479      3477      3480
      3477      3480      3481      3477      3480      3482      3477      3480      3483
      3481      3480      3482      3481      3480      3483      3482      3480      3483
      3480      3483      3484      3480      3483      3485      3480      3483      3486
      3484      3483      3485      3484      3483      3486      3485      3483      3486
      3483      3486      3487      3483      3486      3488      3483      3486      3489
      3487      3486      3488      3487      3486      3489      3488      3486      3489
      3486      3489      3490      3486      3489      3491      3486      3489      3492
      3490      3489      3491      3490      3489      3492      3491      3489      3492
      3489      3492      3493      3489      3492      3494      3489      3492      3495
      3493      3492      3494      3493      3492      3495      3494      3492      3495
      3492      3495      3496      3492      3495      3497      3492      3495      3498
      3496      3495      3497      3496      3495      3498      3497      3495      3498
      3495      3498      3499      3495      3498      3500      3495      3498      3501
      3499      3498      3500      3499      3498      3501      3500      3498      3501
      3498      3501      3502      3498      3501      3503      3498      3501      3504
      3502      3501      3503      3502      3501      3504      3503      3501      3504
      3501      3504      3505      3501      3504      3506      3501      3504      3507
      3505      3504      3506      3505      3504      3507      3506      3504      3507
      3504      3507      3508      3504      3507      3509      3504      3507      3510
      3508      3507      3509      3508      3507      3510      3509      3507      3510
      3512      3511      3516      3512      3511      3520      3512      3511      3524
      3516      3511      3520      3516      3511      3524      3520      3511      3524
      3511      3512      3513      3511      3512      3514      3511      3512      3515
      3513      3512      3514      3513      3512      3515      3514      3512      3515
      3511      3516      3517      3511      3516      3518      3511      3516      3519
      3517      3516      3518      3517      3516      3519      3518      3516      3519
      3511      3520      3521      3511      3520      3522      3511      3520      3523
      3521      3520      3522      3521      3520      3523      3522      3520      3523
      3511      3524      3525      3511      3524      3526      3511      3524      3527
      3525      3524      3526      3525      3524      3527      3526      3524      3527
      3524      3527      3528      3524      3527      3529      3524      3527      3534
      3528      3527      3529      3528      3527      3534      3529      3527      3534
      3531      3530      3532      3531      3530      3533      3531      3530      3534
      3532      3530      3533      3532      3530      3534      3533      3530      3534
      3530      3533      3535      3527      3534      3530      3533      3535      3536
      3533      3535      3537      3533      3535      3538      3536      3535      3537
      3536      3535      3538      3537      3535      3538      3535      3538      3539
      3535      3538      3540      3535      3538      3546      3539      3538      3540
      3539      3538      3546      3540      3538      3546      3538      3540      3541
      3540      3541      3542      3540      3541      3543      3542      3541      3543
      3541      3543      3544      3541      3543      3545      3541      3543      3555
      3544      3543      3545      3544      3543      3555      3545      3543      3555
      3538      3546      3547      3538      3546      3548      3538      3546      3549
      3547      3546      3548      3547      3546      3549      3548      3546      3549
      3546      3549      3550      3549      3550      3551      3549      3550      3552
      3551      3550      3552      3550      3552      3553      3550      3552      3554
      3550      3552      3598      3553      3552      3554      3553      3552      3598
      3554      3552      3598      3543      3555      3556      3543      3555      3557
      3543      3555      3558      3556      3555      3557      3556      3555      3558
      3557      3555      3558      3555      3558      3559      3555      3558      3560
      3555      3558      3561      3559      3558      3560      3559      3558      3561
      3560      3558      3561      3558      3561      3562      3558      3561      3563
      3558      3561      3564      3562      3561      3563      3562      3561      3564
      3563      3561      3564      3561      3564      3565      3561      3564      3566
      3561      3564      3567      3565      3564      3566      3565      3564      3567
      3566      3564      3567      3564      3567      3568      3564      3567      3569
      3564      3567      3570      3568      3567      3569      3568      3567      3570
      3569      3567      3570      3567      3570      3571      3567      3570      3572
      3567      3570      3573      3571      3570      3572      3571      3570      3573
      3572      3570      3573      3570      3573      3574      3570      3573      3575
      3570      3573      3576      3574      3573      3575      3574      3573      3576
      3575      3573      3576      3573      3576      3577      3573      3576      3578
      3573      3576      3579      3577      3576      3578      3577      3576      3579
      3578      3576      3579      3576      3579      3580      3576      3579      3581
      3576      3579      3582      3580      3579      3581      3580      3579      3582
      3581      3579      3582      3579      3582      3583      3579      3582      3584
      3579      3582      3585      3583      3582      3584      3583      3582      3585
      3584      3582      3585      3582      3585      3586      3582      3585      3587
      3582      3585      3588      3586      3585      3587      3586      3585      3588
      3587      3585      3588      3585      3588      3589      3585      3588      3590
      3585      3588      3591      3589      3588      3590      3589      3588      3591
      3590      3588      3591      3588      3591      3592      3588      3591      3593
      3588      3591      3594      3592      3591      3593      3592      3591      3594
      3593      3591      3594      3591      3594      3595      3591      3594      3596
      3591      3594      3597      3595      3594      3596      3595      3594      3597
      3596      3594      3597      3552      3598      3599      3552      3598      3600
      3552      3598      3601      3599      3598      3600      3599      3598      3601
      3600      3598      3601      3598      3601      3602      3598      3601      3603
      3598      3601      3604      3602      3601      3603      3602      3601      3604
      3603      3601      3604      3601      3604      3605      3601      3604      3606
      3601      3604      3607      3605      3604      3606      3605      3604      3607
      3606      3604      3607      3604      3607      3608      3604      3607      3609
      3604      3607      3610      3608      3607      3609      3608      3607      3610
      3609      3607      3610      3607      3610      3611      3607      3610      3612
      3607      3610      3613      3611      3610      3612      3611      3610      3613
      3612      3610      3613      3610      3613      3614      3610      3613      3615
      3610      3613      3616      3614      3613      3615      3614      3613      3616
      3615      3613      3616      3613      3616      3617      3613      3616      3618
      3613      3616      3619      3617      3616      3618      3617      3616      3619
      3618      3616      3619      3616      3619      3620      3616      3619      3621
      3616      3619      3622      3620      3619      3621      3620      3619      3622
      3621      3619      3622      3619      3622      3623      3619      3622      3624
      3619      3622      3625      3623      3622      3624      3623      3622      3625
      3624      3622      3625      3622      3625      3626      3622      3625      3627
      3622      3625      3628      3626      3625      3627      3626      3625      3628
      3627      3625      3628      3625      3628      3629      3625      3628      3630
      3625      3628      3631      3629      3628      3630      3629      3628      3631
      3630      3628      3631      3628      3631      3632      3628      3631      3633
      3628      3631      3634      3632      3631      3633      3632      3631      3634
      3633      3631      3634      3631      3634      3635      3631      3634      3636
      3631      3634      3637      3635      3634      3636      3635      3634      3637
      3636      3634      3637      3634      3637      3638      3634      3637      3639
      3634      3637      3640      3638      3637      3639      3638      3637      3640
      3639      3637      3640      3642      3641      3646      3642      3641      3650
      3642      3641      3654      3646      3641      3650      3646      3641      3654
      3650      3641      3654      3641      3642      3643      3641      3642      3644
      3641      3642      3645      3643      3642      3644      3643      3642      3645
      3644      3642      3645      3641      3646      3647      3641      3646      3648
      3641      3646      3649      3647      3646      3648      3647      3646      3649
      3648      3646      3649      3641      3650      3651      3641      3650      3652
      3641      3650      3653      3651      3650      3652      3651      3650      3653
      3652      3650      3653      3641      3654      3655      3641      3654      3656
      3641      3654      3657      3655      3654      3656      3655      3654      3657
      3656      3654      3657      3654      3657      3658      3654      3657      3659
      3654      3657      3664      3658      3657      3659      3658      3657      3664
      3659      3657      3664      3661      3660      3662      3661      3660      3663
      3661      3660      3664      3662      3660      3663      3662      3660      3664
      3663      3660      3664      3660      3663      3665      3657      3664      3660
      3663      3665      3666      3663      3665      3667      3663      3665      3668
      3666      3665      3667      3666      3665      3668      3667      3665      3668
      3665      3668      3669      3665      3668      3670      3665      3668      3676
      3669      3668      3670      3669      3668      3676      3670      3668      3676
      3668      3670      3671      3670      3671      3672      3670      3671      3673
      3672      3671      3673      3671      3673      3674      3671      3673      3675
      3671      3673      3685      3674      3673      3675      3674      3673      3685
      3675      3673      3685      3668      3676      3677      3668      3676      3678
      3668      3676      3679      3677      3676      3678      3677      3676      3679
      3678      3676      3679      3676      3679      3680      3679      3680      3681
      3679      3680      3682      3681      3680      3682      3680      3682      3683
      3680      3682      3684      3680      3682      3728      3683      3682      3684
      3683      3682      3728      3684      3682      3728      3673      3685      3686
      3673      3685      3687      3673      3685      3688      3686      3685      3687
      3686      3685      3688      3687      3685      3688      3685      3688      3689
      3685      3688      3690      3685      3688      3691      3689      3688      3690
      3689      3688      3691      3690      3688      3691      3688      3691      3692
      3688      3691      3693      3688      3691      3694      3692      3691      3693
      3692      3691      3694      3693      3691      3694      3691      3694      3695
      3691      3694      3696      3691      3694      3697      3695      3694      3696
      3695      3694      3697      3696      3694      3697      3694      3697      3698
      3694      3697      3699      3694      3697      3700      3698      3697      3699
      3698      3697      3700      3699      3697      3700      3697      3700      3701
      3697      3700      3702      3697      3700      3703      3701      3700      3702
      3701      3700      3703      3702      3700      3703      3700      3703      3704
      3700      3703      3705      3700      3703      3706      3704      3703      3705
      3704      3703      3706      3705      3703      3706      3703      3706      3707
      3703      3706      3708      3703      3706      3709      3707      3706      3708
      3707      3706      3709      3708      3706      3709      3706      3709      3710
      3706      3709      3711      3706      3709      3712      3710      3709      3711
      3710      3709      3712      3711      3709      3712      3709      3712      3713
      3709      3712      3714      3709      3712      3715      3713      3712      3714
      3713      3712      3715      3714      3712      3715      3712      3715      3716
      3712      3715      3717      3712      3715      3718      3716      3715      3717
      3716      3715      3718      3717      3715      3718      3715      3718      3719
      3715      3718      3720      3715      3718      3721      3719      3718      3720
      3719      3718      3721      3720      3718      3721      3718      3721      3722
      3718      3721      3723      3718      3721      3724      3722      3721      3723
      3722      3721      3724      3723      3721      3724      3721      3724      3725
      3721      3724      3726      3721      3724      3727      3725      3724      3726
      3725      3724      3727      3726      3724      3727      3682      3728      3729
      3682      3728      3730      3682      3728      3731      3729      3728      3730
      3729      3728      3731      3730      3728      3731      3728      3731      3732
      3728      3731      3733      3728      3731      3734      3732      3731      3733
      3732      3731      3734      3733      3731      3734      3731      3734      3735
      3731      3734      3736      3731      3734      3737      3735      3734      3736
      3735      3734      3737      3736      3734      3737      3734      3737      3738
      3734      3737      3739      3734      3737      3740      3738      3737      3739
      3738      3737      3740      3739      3737      3740      3737      3740      3741
      3737      3740      3742      3737      3740      3743      3741      3740      3742
      3741      3740      3743      3742      3740      3743      3740      3743      3744
      3740      3743      3745      3740      3743      3746      3744      3743      3745
      3744      3743      3746      3745      3743      3746      3743      3746      3747
      3743      3746      3748      3743      3746      3749      3747      3746      3748
      3747      3746      3749      3748      3746      3749      3746      3749      3750
      3746      3749      3751      3746      3749      3752      3750      3749      3751
      3750      3749      3752      3751      3749      3752      3749      3752      3753
      3749      3752      3754      3749      3752      3755      3753      3752      3754
      3753      3752      3755      3754      3752      3755      3752      3755      3756
      3752      3755      3757      3752      3755      3758      3756      3755      3757
      3756      3755      3758      3757      3755      3758      3755      3758      3759
      3755      3758      3760      3755      3758      3761      3759      3758      3760
      3759      3758      3761      3760      3758      3761      3758      3761      3762
      3758      3761      3763      3758      3761      3764      3762      3761      3763
      3762      3761      3764      3763      3761      3764      3761      3764      3765
      3761      3764      3766      3761      3764      3767      3765      3764      3766
      3765      3764      3767      3766      3764      3767      3764      3767      3768
      3764      3767      3769      3764      3767      3770      3768      3767      3769
      3768      3767      3770      3769      3767      3770      3772      3771      3776
      3772      3771      3780      3772      3771      3784      3776      3771      3780
      3776      3771      3784      3780      3771      3784      3771      3772      3773
      3771      3772      3774      3771      3772      3775      3773      3772      3774
      3773      3772      3775      3774      3772      3775      3771      3776      3777
      3771      3776      3778      3771      3776      3779      3777      3776      3778
      3777      3776      3779      3778      3776      3779      3771      3780      3781
      3771      3780      3782      3771      3780      3783      3781      3780      3782
      3781      3780      3783      3782      3780      3783      3771      3784      3785
      3771      3784      3786      3771      3784      3787      3785      3784      3786
      3785      3784      3787      3786      3784      3787      3784      3787      3788
      3784      3787      3789      3784      3787      3794      3788      3787      3789
      3788      3787      3794      3789      3787      3794      3791      3790      3792
      3791      3790      3793      3791      3790      3794      3792      3790      3793
      3792      3790      3794      3793      3790      3794      3790      3793      3795
      3787      3794      3790      3793      3795      3796      3793      3795      3797
      3793      3795      3798      3796      3795      3797      3796      3795      3798
      3797      3795      3798      3795      3798      3799      3795      3798      3800
      3795      3798      3806      3799      3798      3800      3799      3798      3806
      3800      3798      3806      3798      3800      3801      3800      3801      3802
      3800      3801      3803      3802      3801      3803      3801      3803      3804
      3801      3803      3805      3801      3803      3815      3804      3803      3805
      3804      3803      3815      3805      3803      3815      3798      3806      3807
      3798      3806      3808      3798      3806      3809      3807      3806      3808
      3807      3806      3809      3808      3806      3809      3806      3809      3810
      3809      3810      3811      3809      3810      3812      3811      3810      3812
      3810      3812      3813      3810      3812      3814      3810      3812      3858
      3813      3812      3814      3813      3812      3858      3814      3812      3858
      3803      3815      3816      3803      3815      3817      3803      3815      3818
      3816      3815      3817      3816      3815      3818      3817      3815      3818
      3815      3818      3819      3815      3818      3820      3815      3818      3821
      3819      3818      3820      3819      3818      3821      3820      3818      3821
      3818      3821      3822      3818      3821      3823      3818      3821      3824
      3822      3821      3823      3822      3821      3824      3823      3821      3824
      3821      3824      3825      3821      3824      3826      3821      3824      3827
      3825      3824      3826      3825      3824      3827      3826      3824      3827
      3824      3827      3828      3824      3827      3829      3824      3827      3830
      3828      3827      3829      3828      3827      3830      3829      3827      3830
      3827      3830      3831      3827      3830      3832      3827      3830      3833
      3831      3830      3832      3831      3830      3833      3832      3830      3833
      3830      3833      3834      3830      3833      3835      3830      3833      3836
      3834      3833      3835      3834      3833      3836      3835      3833      3836
      3833      3836      3837      3833      3836      3838      3833      3836      3839
      3837      3836      3838      3837      3836      3839      3838      3836      3839
      3836      3839      3840      3836      3839      3841      3836      3839      3842
      3840      3839      3841      3840      3839      3842      3841      3839      3842
      3839      3842      3843      3839      3842      3844      3839      3842      3845
      3843      3842      3844      3843      3842      3845      3844      3842      3845
      3842      3845      3846      3842      3845      3847      3842      3845      3848
      3846      3845      3847      3846      3845      3848      3847      3845      3848
      3845      3848      3849      3845      3848      3850      3845      3848      3851
      3849      3848      3850      3849      3848      3851      3850      3848      3851
      3848      3851      3852      3848      3851      3853      3848      3851      3854
      3852      3851      3853      3852      3851      3854      3853      3851      3854
      3851      3854      3855      3851      3854      3856      3851      3854      3857
      3855      3854      3856      3855      3854      3857      3856      3854      3857
      3812      3858      3859      3812      3858      3860      3812      3858      3861
      3859      3858      3860      3859      3858      3861      3860      3858      3861
      3858      3861      3862      3858      3861      3863      3858      3861      3864
      3862      3861      3863      3862      3861      3864      3863      3861      3864
      3861      3864      3865      3861      3864      3866      3861      3864      3867
      3865      3864      3866      3865      3864      3867      3866      3864      3867
      3864      3867      3868      3864      3867      3869      3864      3867      3870
      3868      3867      3869      3868      3867      3870      3869      3867      3870
      3867      3870      3871      3867      3870      3872      3867      3870      3873
      3871      3870      3872      3871      3870      3873      3872      3870      3873
      3870      3873      3874      3870      3873      3875      3870      3873      3876
      3874      3873      3875      3874      3873      3876      3875      3873      3876
      3873      3876      3877      3873      3876      3878      3873      3876      3879
      3877      3876      3878      3877      3876      3879      3878      3876      3879
      3876      3879      3880      3876      3879      3881      3876      3879      3882
      3880      3879      3881      3880      3879      3882      3881      3879      3882
      3879      3882      3883      3879      3882      3884      3879      3882      3885
      3883      3882      3884      3883      3882      3885      3884      3882      3885
      3882      3885      3886      3882      3885      3887      3882      3885      3888
      3886      3885      3887      3886      3885      3888      3887      3885      3888
      3885      3888      3889      3885      3888      3890      3885      3888      3891
      3889      3888      3890      3889      3888      3891      3890      3888      3891
      3888      3891      3892      3888      3891      3893      3888      3891      3894
      3892      3891      3893      3892      3891      3894      3893      3891      3894
      3891      3894      3895      3891      3894      3896      3891      3894      3897
      3895      3894      3896      3895      3894      3897      3896      3894      3897
      3894      3897      3898      3894      3897      3899      3894      3897      3900
      3898      3897      3899      3898      3897      3900      3899      3897      3900
      3902      3901      3906      3902      3901      3910      3902      3901      3914
      3906      3901      3910      3906      3901      3914      3910      3901      3914
      3901      3902      3903      3901      3902      3904      3901      3902      3905
      3903      3902      3904      3903      3902      3905      3904      3902      3905
      3901      3906      3907      3901      3906      3908      3901      3906      3909
      3907      3906      3908      3907      3906      3909      3908      3906      3909
      3901      3910      3911      3901      3910      3912      3901      3910      3913
      3911      3910      3912      3911      3910      3913      3912      3910      3913
      3901      3914      3915      3901      3914      3916      3901      3914      3917
      3915      3914      3916      3915      3914      3917      3916      3914      3917
      3914      3917      3918      3914      3917      3919      3914      3917      3924
      3918      3917      3919      3918      3917      3924      3919      3917      3924
      3921      3920      3922      3921      3920      3923      3921      3920      3924
      3922      3920      3923      3922      3920      3924      3923      3920      3924
      3920      3923      3925      3917      3924      3920      3923      3925      3926
      3923      3925      3927      3923      3925      3928      3926      3925      3927
      3926      3925      3928      3927      3925      3928      3925      3928      3929
      3925      3928      3930      3925      3928      3936      3929      3928      3930
      3929      3928      3936      3930      3928      3936      3928      3930      3931
      3930      3931      3932      3930      3931      3933      3932      3931      3933
      3931      3933      3934      3931      3933      3935      3931      3933      3945
      3934      3933      3935      3934      3933      3945      3935      3933      3945
      3928      3936      3937      3928      3936      3938      3928      3936      3939
      3937      3936      3938      3937      3936      3939      3938      3936      3939
      3936      3939      3940      3939      3940      3941      3939      3940      3942
      3941      3940      3942      3940      3942      3943      3940      3942      3944
      3940      3942      3988      3943      3942      3944      3943      3942      3988
      3944      3942      3988      3933      3945      3946      3933      3945      3947
      3933      3945      3948      3946      3945      3947      3946      3945      3948
      3947      3945      3948      3945      3948      3949      3945      3948      3950
      3945      3948      3951      3949      3948      3950      3949      3948      3951
      3950      3948      3951      3948      3951      3952      3948      3951      3953
      3948      3951      3954      3952      3951      3953      3952      3951      3954
      3953      3951      3954      3951      3954      3955      3951      3954      3956
      3951      3954      3957      3955      3954      3956      3955      3954      3957
      3956      3954      3957      3954      3957      3958      3954      3957      3959
      3954      3957      3960      3958      3957      3959      3958      3957      3960
      3959      3957      3960      3957      3960      3961      3957      3960      3962
      3957      3960      3963      3961      3960      3962      3961      3960      3963
      3962      3960      3963      3960      3963      3964      3960      3963      3965
      3960      3963      3966      3964      3963      3965      3964      3963      3966
      3965      3963      3966      3963      3966      3967      3963      3966      3968
      3963      3966      3969      3967      3966      3968      3967      3966      3969
      3968      3966      3969      3966      3969      3970      3966      3969      3971
      3966      3969      3972      3970      3969      3971      3970      3969      3972
      3971      3969      3972      3969      3972      3973      3969      3972      3974
      3969      3972      3975      3973      3972      3974      3973      3972      3975
      3974      3972      3975      3972      3975      3976      3972      3975      3977
      3972      3975      3978      3976      3975      3977      3976      3975      3978
      3977      3975      3978      3975      3978      3979      3975      3978      3980
      3975      3978      3981      3979      3978      3980      3979      3978      3981
      3980      3978      3981      3978      3981      3982      3978      3981      3983
      3978      3981      3984      3982      3981      3983      3982      3981      3984
      3983      3981      3984      3981      3984      3985      3981      3984      3986
      3981      3984      3987      3985      3984      3986      3985      3984      3987
      3986      3984      3987      3942      3988      3989      3942      3988      3990
      3942      3988      3991      3989      3988      3990      3989      3988      3991
      3990      3988      3991      3988      3991      3992      3988      3991      3993
      3988      3991      3994      3992      3991      3993      3992      3991      3994
      3993      3991      3994      3991      3994      3995      3991      3994      3996
      3991      3994      3997      3995      3994      3996      3995      3994      3997
      3996      3994      3997      3994      3997      3998      3994      3997      3999
      3994      3997      4000      3998      3997      3999      3998      3997      4000
      3999      3997      4000      3997      4000      4001      3997      4000      4002
      3997      4000      4003      4001      4000      4002      4001      4000      4003
      4002      4000      4003      4000      4003      4004      4000      4003      4005
      4000      4003      4006      4004      4003      4005      4004      4003      4006
      4005      4003      4006      4003      4006      4007      4003      4006      4008
      4003      4006      4009      4007      4006      4008      4007      4006      4009
      4008      4006      4009      4006      4009      4010      4006      4009      4011
      4006      4009      4012      4010      4009      4011      4010      4009      4012
      4011      4009      4012      4009      4012      4013      4009      4012      4014
      4009      4012      4015      4013      4012      4014      4013      4012      4015
      4014      4012      4015      4012      4015      4016      4012      4015      4017
      4012      4015      4018      4016      4015      4017      4016      4015      4018
      4017      4015      4018      4015      4018      4019      4015      4018      4020
      4015      4018      4021      4019      4018      4020      4019      4018      4021
      4020      4018      4021      4018      4021      4022      4018      4021      4023
      4018      4021      4024      4022      4021      4023      4022      4021      4024
      4023      4021      4024      4021      4024      4025      4021      4024      4026
      4021      4024      4027      4025      4024      4026      4025      4024      4027
      4026      4024      4027      4024      4027      4028      4024      4027      4029
      4024      4027      4030      4028      4027      4029      4028      4027      4030
      4029      4027      4030      4032      4031      4036      4032      4031      4040
      4032      4031      4044      4036      4031      4040      4036      4031      4044
      4040      4031      4044      4031      4032      4033      4031      4032      4034
      4031      4032      4035      4033      4032      4034      4033      4032      4035
      4034      4032      4035      4031      4036      4037      4031      4036      4038
      4031      4036      4039      4037      4036      4038      4037      4036      4039
      4038      4036      4039      4031      4040      4041      4031      4040      4042
      4031      4040      4043      4041      4040      4042      4041      4040      4043
      4042      4040      4043      4031      4044      4045      4031      4044      4046
      4031      4044      4047      4045      4044      4046      4045      4044      4047
      4046      4044      4047      4044      4047      4048      4044      4047      4049
      4044      4047      4054      4048      4047      4049      4048      4047      4054
      4049      4047      4054      4051      4050      4052      4051      4050      4053
      4051      4050      4054      4052      4050      4053      4052      4050      4054
      4053      4050      4054      4050      4053      4055      4047      4054      4050
      4053      4055      4056      4053      4055      4057      4053      4055      4058
      4056      4055      4057      4056      4055      4058      4057      4055      4058
      4055      4058      4059      4055      4058      4060      4055      4058      4066
      4059      4058      4060      4059      4058      4066      4060      4058      4066
      4058      4060      4061      4060      4061      4062      4060      4061      4063
      4062      4061      4063      4061      4063      4064      4061      4063      4065
      4061      4063      4075      4064      4063      4065      4064      4063      4075
      4065      4063      4075      4058      4066      4067      4058      4066      4068
      4058      4066      4069      4067      4066      4068      4067      4066      4069
      4068      4066      4069      4066      4069      4070      4069      4070      4071
      4069      4070      4072      4071      4070      4072      4070      4072      4073
      4070      4072      4074      4070      4072      4118      4073      4072      4074
      4073      4072      4118      4074      4072      4118      4063      4075      4076
      4063      4075      4077      4063      4075      4078      4076      4075      4077
      4076      4075      4078      4077      4075      4078      4075      4078      4079
      4075      4078      4080      4075      4078      4081      4079      4078      4080
      4079      4078      4081      4080      4078      4081      4078      4081      4082
      4078      4081      4083      4078      4081      4084      4082      4081      4083
      4082      4081      4084      4083      4081      4084      4081      4084      4085
      4081      4084      4086      4081      4084      4087      4085      4084      4086
      4085      4084      4087      4086      4084      4087      4084      4087      4088
      4084      4087      4089      4084      4087      4090      4088      4087      4089
      4088      4087      4090      4089      4087      4090      4087      4090      4091
      4087      4090      4092      4087      4090      4093      4091      4090      4092
      4091      4090      4093      4092      4090      4093      4090      4093      4094
      4090      4093      4095      4090      4093      4096      4094      4093      4095
      4094      4093      4096      4095      4093      4096      4093      4096      4097
      4093      4096      4098      4093      4096      4099      4097      4096      4098
      4097      4096      4099      4098      4096      4099      4096      4099      4100
      4096      4099      4101      4096      4099      4102      4100      4099      4101
      4100      4099      4102      4101      4099      4102      4099      4102      4103
      4099      4102      4104      4099      4102      4105      4103      4102      4104
      4103      4102      4105      4104      4102      4105      4102      4105      4106
      4102      4105      4107      4102      4105      4108      4106      4105      4107
      4106      4105      4108      4107      4105      4108      4105      4108      4109
      4105      4108      4110      4105      4108      4111      4109      4108      4110
      4109      4108      4111      4110      4108      4111      4108      4111      4112
      4108      4111      4113      4108      4111      4114      4112      4111      4113
      4112      4111      4114      4113      4111      4114      4111      4114      4115
      4111      4114      4116      4111      4114      4117      4115      4114      4116
      4115      4114      4117      4116      4114      4117      4072      4118      4119
      4072      4118      4120      4072      4118      4121      4119      4118      4120
      4119      4118      4121      4120      4118      4121      4118      4121      4122
      4118      4121      4123      4118      4121      4124      4122      4121      4123
      4122      4121      4124      4123      4121      4124      4121      4124      4125
      4121      4124      4126      4121      4124      4127      4125      4124      4126
      4125      4124      4127      4126      4124      4127      4124      4127      4128
      4124      4127      4129      4124      4127      4130      4128      4127      4129
      4128      4127      4130      4129      4127      4130      4127      4130      4131
      4127      4130      4132      4127      4130      4133      4131      4130      4132
      4131      4130      4133      4132      4130      4133      4130      4133      4134
      4130      4133      4135      4130      4133      4136      4134      4133      4135
      4134      4133      4136      4135      4133      4136      4133      4136      4137
      4133      4136      4138      4133      4136      4139      4137      4136      4138
      4137      4136      4139      4138      4136      4139      4136      4139      4140
      4136      4139      4141      4136      4139      4142      4140      4139      4141
      4140      4139      4142      4141      4139      4142      4139      4142      4143
      4139      4142      4144      4139      4142      4145      4143      4142      4144
      4143      4142      4145      4144      4142      4145      4142      4145      4146
      4142      4145      4147      4142      4145      4148      4146      4145      4147
      4146      4145      4148      4147      4145      4148      4145      4148      4149
      4145      4148      4150      4145      4148      4151      4149      4148      4150
      4149      4148      4151      4150      4148      4151      4148      4151      4152
      4148      4151      4153      4148      4151      4154      4152      4151      4153
      4152      4151      4154      4153      4151      4154      4151      4154      4155
      4151      4154      4156      4151      4154      4157      4155      4154      4156
      4155      4154      4157      4156      4154      4157      4154      4157      4158
      4154      4157      4159      4154      4157      4160      4158      4157      4159
      4158      4157      4160      4159      4157      4160      4162      4161      4166
      4162      4161      4170      4162      4161      4174      4166      4161      4170
      4166      4161      4174      4170      4161      4174      4161      4162      4163
      4161      4162      4164      4161      4162      4165      4163      4162      4164
      4163      4162      4165      4164      4162      4165      4161      4166      4167
      4161      4166      4168      4161      4166      4169      4167      4166      4168
      4167      4166      4169      4168      4166      4169      4161      4170      4171
      4161      4170      4172      4161      4170      4173      4171      4170      4172
      4171      4170      4173      4172      4170      4173      4161      4174      4175
      4161      4174      4176      4161      4174      4177      4175      4174      4176
      4175      4174      4177      4176      4174      4177      4174      4177      4178
      4174      4177      4179      4174      4177      4184      4178      4177      4179
      4178      4177      4184      4179      4177      4184      4181      4180      4182
      4181      4180      4183      4181      4180      4184      4182      4180      4183
      4182      4180      4184      4183      4180      4184      4180      4183      4185
      4177      4184      4180      4183      4185      4186      4183      4185      4187
      4183      4185      4188      4186      4185      4187      4186      4185      4188
      4187      4185      4188      4185      4188      4189      4185      4188      4190
      4185      4188      4196      4189      4188      4190      4189      4188      4196
      4190      4188      4196      4188      4190      4191      4190      4191      4192
      4190      4191      4193      4192      4191      4193      4191      4193      4194
      4191      4193      4195      4191      4193      4205      4194      4193      4195
      4194      4193      4205      4195      4193      4205      4188      4196      4197
      4188      4196      4198      4188      4196      4199      4197      4196      4198
      4197      4196      4199      4198      4196      4199      4196      4199      4200
      4199      4200      4201      4199      4200      4202      4201      4200      4202
      4200      4202      4203      4200      4202      4204      4200      4202      4248
      4203      4202      4204      4203      4202      4248      4204      4202      4248
      4193      4205      4206      4193      4205      4207      4193      4205      4208
      4206      4205      4207      4206      4205      4208      4207      4205      4208
      4205      4208      4209      4205      4208      4210      4205      4208      4211
      4209      4208      4210      4209      4208      4211      4210      4208      4211
      4208      4211      4212      4208      4211      4213      4208      4211      4214
      4212      4211      4213      4212      4211      4214      4213      4211      4214
      4211      4214      4215      4211      4214      4216      4211      4214      4217
      4215      4214      4216      4215      4214      4217      4216      4214      4217
      4214      4217      4218      4214      4217      4219      4214      4217      4220
      4218      4217      4219      4218      4217      4220      4219      4217      4220
      4217      4220      4221      4217      4220      4222      4217      4220      4223
      4221      4220      4222      4221      4220      4223      4222      4220      4223
      4220      4223      4224      4220      4223      4225      4220      4223      4226
      4224      4223      4225      4224      4223      4226      4225      4223      4226
      4223      4226      4227      4223      4226      4228      4223      4226      4229
      4227      4226      4228      4227      4226      4229      4228      4226      4229
      4226      4229      4230      4226      4229      4231      4226      4229      4232
      4230      4229      4231      4230      4229      4232      4231      4229      4232
      4229      4232      4233      4229      4232      4234      4229      4232      4235
      4233      4232      4234      4233      4232      4235      4234      4232      4235
      4232      4235      4236      4232      4235      4237      4232      4235      4238
      4236      4235      4237      4236      4235      4238      4237      4235      4238
      4235      4238      4239      4235      4238      4240      4235      4238      4241
      4239      4238      4240      4239      4238      4241      4240      4238      4241
      4238      4241      4242      4238      4241      4243      4238      4241      4244
      4242      4241      4243      4242      4241      4244      4243      4241      4244
      4241      4244      4245      4241      4244      4246      4241      4244      4247
      4245      4244      4246      4245      4244      4247      4246      4244      4247
      4202      4248      4249      4202      4248      4250      4202      4248      4251
      4249      4248      4250      4249      4248      4251      4250      4248      4251
      4248      4251      4252      4248      4251      4253      4248      4251      4254
      4252      4251      4253      4252      4251      4254      4253      4251      4254
      4251      4254      4255      4251      4254      4256      4251      4254      4257
      4255      4254      4256      4255      4254      4257      4256      4254      4257
      4254      4257      4258      4254      4257      4259      4254      4257      4260
      4258      4257      4259      4258      4257      4260      4259      4257      4260
      4257      4260      4261      4257      4260      4262      4257      4260      4263
      4261      4260      4262      4261      4260      4263      4262      4260      4263
      4260      4263      4264      4260      4263      4265      4260      4263      4266
      4264      4263      4265      4264      4263      4266      4265      4263      4266
      4263      4266      4267      4263      4266      4268      4263      4266      4269
      4267      4266      4268      4267      4266      4269      4268      4266      4269
      4266      4269      4270      4266      4269      4271      4266      4269      4272
      4270      4269      4271      4270      4269      4272      4271      4269      4272
      4269      4272      4273      4269      4272      4274      4269      4272      4275
      4273      4272      4274      4273      4272      4275      4274      4272      4275
      4272      4275      4276      4272      4275      4277      4272      4275      4278
      4276      4275      4277      4276      4275      4278      4277      4275      4278
      4275      4278      4279      4275      4278      4280      4275      4278      4281
      4279      4278      4280      4279      4278      4281      4280      4278      4281
      4278      4281      4282      4278      4281      4283      4278      4281      4284
      4282      4281      4283      4282      4281      4284      4283      4281      4284
      4281      4284      4285      4281      4284      4286      4281      4284      4287
      4285      4284      4286      4285      4284      4287      4286      4284      4287
      4284      4287      4288      4284      4287      4289      4284      4287      4290
      4288      4287      4289      4288      4287      4290      4289      4287      4290
      4292      4291      4296      4292      4291      4300      4292      4291      4304
      4296      4291      4300      4296      4291      4304      4300      4291      4304
      4291      4292      4293      4291      4292      4294      4291      4292      4295
      4293      4292      4294      4293      4292      4295      4294      4292      4295
      4291      4296      4297      4291      4296      4298      4291      4296      4299
      4297      4296      4298      4297      4296      4299      4298      4296      4299
      4291      4300      4301      4291      4300      4302      4291      4300      4303
      4301      4300      4302      4301      4300      4303      4302      4300      4303
      4291      4304      4305      4291      4304      4306      4291      4304      4307
      4305      4304      4306      4305      4304      4307      4306      4304      4307
      4304      4307      4308      4304      4307      4309      4304      4307      4314
      4308      4307      4309      4308      4307      4314      4309      4307      4314
      4311      4310      4312      4311      4310      4313      4311      4310      4314
      4312      4310      4313      4312      4310      4314      4313      4310      4314
      4310      4313      4315      4307      4314      4310      4313      4315      4316
      4313      4315      4317      4313      4315      4318      4316      4315      4317
      4316      4315      4318      4317      4315      4318      4315      4318      4319
      4315      4318      4320      4315      4318      4326      4319      4318      4320
      4319      4318      4326      4320      4318      4326      4318      4320      4321
      4320      4321      4322      4320      4321      4323      4322      4321      4323
      4321      4323      4324      4321      4323      4325      4321      4323      4335
      4324      4323      4325      4324      4323      4335      4325      4323      4335
      4318      4326      4327      4318      4326      4328      4318      4326      4329
      4327      4326      4328      4327      4326      4329      4328      4326      4329
      4326      4329      4330      4329      4330      4331      4329      4330      4332
      4331      4330      4332      4330      4332      4333      4330      4332      4334
      4330      4332      4378      4333      4332      4334      4333      4332      4378
      4334      4332      4378      4323      4335      4336      4323      4335      4337
      4323      4335      4338      4336      4335      4337      4336      4335      4338
      4337      4335      4338      4335      4338      4339      4335      4338      4340
      4335      4338      4341      4339      4338      4340      4339      4338      4341
      4340      4338      4341      4338      4341      4342      4338      4341      4343
      4338      4341      4344      4342      4341      4343      4342      4341      4344
      4343      4341      4344      4341      4344      4345      4341      4344      4346
      4341      4344      4347      4345      4344      4346      4345      4344      4347
      4346      4344      4347      4344      4347      4348      4344      4347      4349
      4344      4347      4350      4348      4347      4349      4348      4347      4350
      4349      4347      4350      4347      4350      4351      4347      4350      4352
      4347      4350      4353      4351      4350      4352      4351      4350      4353
      4352      4350      4353      4350      4353      4354      4350      4353      4355
      4350      4353      4356      4354      4353      4355      4354      4353      4356
      4355      4353      4356      4353      4356      4357      4353      4356      4358
      4353      4356      4359      4357      4356      4358      4357      4356      4359
      4358      4356      4359      4356      4359      4360      4356      4359      4361
      4356      4359      4362      4360      4359      4361      4360      4359      4362
      4361      4359      4362      4359      4362      4363      4359      4362      4364
      4359      4362      4365      4363      4362      4364      4363      4362      4365
      4364      4362      4365      4362      4365      4366      4362      4365      4367
      4362      4365      4368      4366      4365      4367      4366      4365      4368
      4367      4365      4368      4365      4368      4369      4365      4368      4370
      4365      4368      4371      4369      4368      4370      4369      4368      4371
      4370      4368      4371      4368      4371      4372      4368      4371      4373
      4368      4371      4374      4372      4371      4373      4372      4371      4374
      4373      4371      4374      4371      4374      4375      4371      4374      4376
      4371      4374      4377      4375      4374      4376      4375      4374      4377
      4376      4374      4377      4332      4378      4379      4332      4378      4380
      4332      4378      4381      4379      4378      4380      4379      4378      4381
      4380      4378      4381      4378      4381      4382      4378      4381      4383
      4378      4381      4384      4382      4381      4383      4382      4381      4384
      4383      4381      4384      4381      4384      4385      4381      4384      4386
      4381      4384      4387      4385      4384      4386      4385      4384      4387
      4386      4384      4387      4384      4387      4388      4384      4387      4389
      4384      4387      4390      4388      4387      4389      4388      4387      4390
      4389      4387      4390      4387      4390      4391      4387      4390      4392
      4387      4390      4393      4391      4390      4392      4391      4390      4393
      4392      4390      4393      4390      4393      4394      4390      4393      4395
      4390      4393      4396      4394      4393      4395      4394      4393      4396
      4395      4393      4396      4393      4396      4397      4393      4396      4398
      4393      4396      4399      4397      4396      4398      4397      4396      4399
      4398      4396      4399      4396      4399      4400      4396      4399      4401
      4396      4399      4402      4400      4399      4401      4400      4399      4402
      4401      4399      4402      4399      4402      4403      4399      4402      4404
      4399      4402      4405      4403      4402      4404      4403      4402      4405
      4404      4402      4405      4402      4405      4406      4402      4405      4407
      4402      4405      4408      4406      4405      4407      4406      4405      4408
      4407      4405      4408      4405      4408      4409      4405      4408      4410
      4405      4408      4411      4409      4408      4410      4409      4408      4411
      4410      4408      4411      4408      4411      4412      4408      4411      4413
      4408      4411      4414      4412      4411      4413      4412      4411      4414
      4413      4411      4414      4411      4414      4415      4411      4414      4416
      4411      4414      4417      4415      4414      4416      4415      4414      4417
      4416      4414      4417      4414      4417      4418      4414      4417      4419
      4414      4417      4420      4418      4417      4419      4418      4417      4420
      4419      4417      4420      4422      4421      4426      4422      4421      4430
      4422      4421      4434      4426      4421      4430      4426      4421      4434
      4430      4421      4434      4421      4422      4423      4421      4422      4424
      4421      4422      4425      4423      4422      4424      4423      4422      4425
      4424      4422      4425      4421      4426      4427      4421      4426      4428
      4421      4426      4429      4427      4426      4428      4427      4426      4429
      4428      4426      4429      4421      4430      4431      4421      4430      4432
      4421      4430      4433      4431      4430      4432      4431      4430      4433
      4432      4430      4433      4421      4434      4435      4421      4434      4436
      4421      4434      4437      4435      4434      4436      4435      4434      4437
      4436      4434      4437      4434      4437      4438      4434      4437      4439
      4434      4437      4444      4438      4437      4439      4438      4437      4444
      4439      4437      4444      4441      4440      4442      4441      4440      4443
      4441      4440      4444      4442      4440      4443      4442      4440      4444
      4443      4440      4444      4440      4443      4445      4437      4444      4440
      4443      4445      4446      4443      4445      4447      4443      4445      4448
      4446      4445      4447      4446      4445      4448      4447      4445      4448
      4445      4448      4449      4445      4448      4450      4445      4448      4456
      4449      4448      4450      4449      4448      4456      4450      4448      4456
      4448      4450      4451      4450      4451      4452      4450      4451      4453
      4452      4451      4453      4451      4453      4454      4451      4453      4455
      4451      4453      4465      4454      4453      4455      4454      4453      4465
      4455      4453      4465      4448      4456      4457      4448      4456      4458
      4448      4456      4459      4457      4456      4458      4457      4456      4459
      4458      4456      4459      4456      4459      4460      4459      4460      4461
      4459      4460      4462      4461      4460      4462      4460      4462      4463
      4460      4462      4464      4460      4462      4508      4463      4462      4464
      4463      4462      4508      4464      4462      4508      4453      4465      4466
      4453      4465      4467      4453      4465      4468      4466      4465      4467
      4466      4465      4468      4467      4465      4468      4465      4468      4469
      4465      4468      4470      4465      4468      4471      4469      4468      4470
      4469      4468      4471      4470      4468      4471      4468      4471      4472
      4468      4471      4473      4468      4471      4474      4472      4471      4473
      4472      4471      4474      4473      4471      4474      4471      4474      4475
      4471      4474      4476      4471      4474      4477      4475      4474      4476
      4475      4474      4477      4476      4474      4477      4474      4477      4478
      4474      4477      4479      4474      4477      4480      4478      4477      4479
      4478      4477      4480      4479      4477      4480      4477      4480      4481
      4477      4480      4482      4477      4480      4483      4481      4480      4482
      4481      4480      4483      4482      4480      4483      4480      4483      4484
      4480      4483      4485      4480      4483      4486      4484      4483      4485
      4484      4483      4486      4485      4483      4486      4483      4486      4487
      4483      4486      4488      4483      4486      4489      4487      4486      4488
      4487      4486      4489      4488      4486      4489      4486      4489      4490
      4486      4489      4491      4486      4489      4492      4490      4489      4491
      4490      4489      4492      4491      4489      4492      4489      4492      4493
      4489      4492      4494      4489      4492      4495      4493      4492      4494
      4493      4492      4495      4494      4492      4495      4492      4495      4496
      4492      4495      4497      4492      4495      4498      4496      4495      4497
      4496      4495      4498      4497      4495      4498      4495      4498      4499
      4495      4498      4500      4495      4498      4501      4499      4498      4500
      4499      4498      4501      4500      4498      4501      4498      4501      4502
      4498      4501      4503      4498      4501      4504      4502      4501      4503
      4502      4501      4504      4503      4501      4504      4501      4504      4505
      4501      4504      4506      4501      4504      4507      4505      4504      4506
      4505      4504      4507      4506      4504      4507      4462      4508      4509
      4462      4508      4510      4462      4508      4511      4509      4508      4510
      4509      4508      4511      4510      4508      4511      4508      4511      4512
      4508      4511      4513      4508      4511      4514      4512      4511      4513
      4512      4511      4514      4513      4511      4514      4511      4514      4515
      4511      4514      4516      4511      4514      4517      4515      4514      4516
      4515      4514      4517      4516      4514      4517      4514      4517      4518
      4514      4517      4519      4514      4517      4520      4518      4517      4519
      4518      4517      4520      4519      4517      4520      4517      4520      4521
      4517      4520      4522      4517      4520      4523      4521      4520      4522
      4521      4520      4523      4522      4520      4523      4520      4523      4524
      4520      4523      4525      4520      4523      4526      4524      4523      4525
      4524      4523      4526      4525      4523      4526      4523      4526      4527
      4523      4526      4528      4523      4526      4529      4527      4526      4528
      4527      4526      4529      4528      4526      4529      4526      4529      4530
      4526      4529      4531      4526      4529      4532      4530      4529      4531
      4530      4529      4532      4531      4529      4532      4529      4532      4533
      4529      4532      4534      4529      4532      4535      4533      4532      4534
      4533      4532      4535      4534      4532      4535      4532      4535      4536
      4532      4535      4537      4532      4535      4538      4536      4535      4537
      4536      4535      4538      4537      4535      4538      4535      4538      4539
      4535      4538      4540      4535      4538      4541      4539      4538      4540
      4539      4538      4541      4540      4538      4541      4538      4541      4542
      4538      4541      4543      4538      4541      4544      4542      4541      4543
      4542      4541      4544      4543      4541      4544      4541      4544      4545
      4541      4544      4546      4541      4544      4547      4545      4544      4546
      4545      4544      4547      4546      4544      4547      4544      4547      4548
      4544      4547      4549      4544      4547      4550      4548      4547      4549
      4548      4547      4550      4549      4547      4550      4552      4551      4556
      4552      4551      4560      4552      4551      4564      4556      4551      4560
      4556      4551      4564      4560      4551      4564      4551      4552      4553
      4551      4552      4554      4551      4552      4555      4553      4552      4554
      4553      4552      4555      4554      4552      4555      4551      4556      4557
      4551      4556      4558      4551      4556      4559      4557      4556      4558
      4557      4556      4559      4558      4556      4559      4551      4560      4561
      4551      4560      4562      4551      4560      4563      4561      4560      4562
      4561      4560      4563      4562      4560      4563      4551      4564      4565
      4551      4564      4566      4551      4564      4567      4565      4564      4566
      4565      4564      4567      4566      4564      4567      4564      4567      4568
      4564      4567      4569      4564      4567      4574      4568      4567      4569
      4568      4567      4574      4569      4567      4574      4571      4570      4572
      4571      4570      4573      4571      4570      4574      4572      4570      4573
      4572      4570      4574      4573      4570      4574      4570      4573      4575
      4567      4574      4570      4573      4575      4576      4573      4575      4577
      4573      4575      4578      4576      4575      4577      4576      4575      4578
      4577      4575      4578      4575      4578      4579      4575      4578      4580
      4575      4578      4586      4579      4578      4580      4579      4578      4586
      4580      4578      4586      4578      4580      4581      4580      4581      4582
      4580      4581      4583      4582      4581      4583      4581      4583      4584
      4581      4583      4585      4581      4583      4595      4584      4583      4585
      4584      4583      4595      4585      4583      4595      4578      4586      4587
      4578      4586      4588      4578      4586      4589      4587      4586      4588
      4587      4586      4589      4588      4586      4589      4586      4589      4590
      4589      4590      4591      4589      4590      4592      4591      4590      4592
      4590      4592      4593      4590      4592      4594      4590      4592      4638
      4593      4592      4594      4593      4592      4638      4594      4592      4638
      4583      4595      4596      4583      4595      4597      4583      4595      4598
      4596      4595      4597      4596      4595      4598      4597      4595      4598
      4595      4598      4599      4595      4598      4600      4595      4598      4601
      4599      4598      4600      4599      4598      4601      4600      4598      4601
      4598      4601      4602      4598      4601      4603      4598      4601      4604
      4602      4601      4603      4602      4601      4604      4603      4601      4604
      4601      4604      4605      4601      4604      4606      4601      4604      4607
      4605      4604      4606      4605      4604      4607      4606      4604      4607
      4604      4607      4608      4604      4607      4609      4604      4607      4610
      4608      4607      4609      4608      4607      4610      4609      4607      4610
      4607      4610      4611      4607      4610      4612      4607      4610      4613
      4611      4610      4612      4611      4610      4613      4612      4610      4613
      4610      4613      4614      4610      4613      4615      4610      4613      4616
      4614      4613      4615      4614      4613      4616      4615      4613      4616
      4613      4616      4617      4613      4616      4618      4613      4616      4619
      4617      4616      4618      4617      4616      4619      4618      4616      4619
      4616      4619      4620      4616      4619      4621      4616      4619      4622
      4620      4619      4621      4620      4619      4622      4621      4619      4622
      4619      4622      4623      4619      4622      4624      4619      4622      4625
      4623      4622      4624      4623      4622      4625      4624      4622      4625
      4622      4625      4626      4622      4625      4627      4622      4625      4628
      4626      4625      4627      4626      4625      4628      4627      4625      4628
      4625      4628      4629      4625      4628      4630      4625      4628      4631
      4629      4628      4630      4629      4628      4631      4630      4628      4631
      4628      4631      4632      4628      4631      4633      4628      4631      4634
      4632      4631      4633      4632      4631      4634      4633      4631      4634
      4631      4634      4635      4631      4634      4636      4631      4634      4637
      4635      4634      4636      4635      4634      4637      4636      4634      4637
      4592      4638      4639      4592      4638      4640      4592      4638      4641
      4639      4638      4640      4639      4638      4641      4640      4638      4641
      4638      4641      4642      4638      4641      4643      4638      4641      4644
      4642      4641      4643      4642      4641      4644      4643      4641      4644
      4641      4644      4645      4641      4644      4646      4641      4644      4647
      4645      4644      4646      4645      4644      4647      4646      4644      4647
      4644      4647      4648      4644      4647      4649      4644      4647      4650
      4648      4647      4649      4648      4647      4650      4649      4647      4650
      4647      4650      4651      4647      4650      4652      4647      4650      4653
      4651      4650      4652      4651      4650      4653      4652      4650      4653
      4650      4653      4654      4650      4653      4655      4650      4653      4656
      4654      4653      4655      4654      4653      4656      4655      4653      4656
      4653      4656      4657      4653      4656      4658      4653      4656      4659
      4657      4656      4658      4657      4656      4659      4658      4656      4659
      4656      4659      4660      4656      4659      4661      4656      4659      4662
      4660      4659      4661      4660      4659      4662      4661      4659      4662
      4659      4662      4663      4659      4662      4664      4659      4662      4665
      4663      4662      4664      4663      4662      4665      4664      4662      4665
      4662      4665      4666      4662      4665      4667      4662      4665      4668
      4666      4665      4667      4666      4665      4668      4667      4665      4668
      4665      4668      4669      4665      4668      4670      4665      4668      4671
      4669      4668      4670      4669      4668      4671      4670      4668      4671
      4668      4671      4672      4668      4671      4673      4668      4671      4674
      4672      4671      4673      4672      4671      4674      4673      4671      4674
      4671      4674      4675      4671      4674      4676      4671      4674      4677
      4675      4674      4676      4675      4674      4677      4676      4674      4677
      4674      4677      4678      4674      4677      4679      4674      4677      4680
      4678      4677      4679      4678      4677      4680      4679      4677      4680
      4682      4681      4686      4682      4681      4690      4682      4681      4694
      4686      4681      4690      4686      4681      4694      4690      4681      4694
      4681      4682      4683      4681      4682      4684      4681      4682      4685
      4683      4682      4684      4683      4682      4685      4684      4682      4685
      4681      4686      4687      4681      4686      4688      4681      4686      4689
      4687      4686      4688      4687      4686      4689      4688      4686      4689
      4681      4690      4691      4681      4690      4692      4681      4690      4693
      4691      4690      4692      4691      4690      4693      4692      4690      4693
      4681      4694      4695      4681      4694      4696      4681      4694      4697
      4695      4694      4696      4695      4694      4697      4696      4694      4697
      4694      4697      4698      4694      4697      4699      4694      4697      4704
      4698      4697      4699      4698      4697      4704      4699      4697      4704
      4701      4700      4702      4701      4700      4703      4701      4700      4704
      4702      4700      4703      4702      4700      4704      4703      4700      4704
      4700      4703      4705      4697      4704      4700      4703      4705      4706
      4703      4705      4707      4703      4705      4708      4706      4705      4707
      4706      4705      4708      4707      4705      4708      4705      4708      4709
      4705      4708      4710      4705      4708      4716      4709      4708      4710
      4709      4708      4716      4710      4708      4716      4708      4710      4711
      4710      4711      4712      4710      4711      4713      4712      4711      4713
      4711      4713      4714      4711      4713      4715      4711      4713      4725
      4714      4713      4715      4714      4713      4725      4715      4713      4725
      4708      4716      4717      4708      4716      4718      4708      4716      4719
      4717      4716      4718      4717      4716      4719      4718      4716      4719
      4716      4719      4720      4719      4720      4721      4719      4720      4722
      4721      4720      4722      4720      4722      4723      4720      4722      4724
      4720      4722      4768      4723      4722      4724      4723      4722      4768
      4724      4722      4768      4713      4725      4726      4713      4725      4727
      4713      4725      4728      4726      4725      4727      4726      4725      4728
      4727      4725      4728      4725      4728      4729      4725      4728      4730
      4725      4728      4731      4729      4728      4730      4729      4728      4731
      4730      4728      4731      4728      4731      4732      4728      4731      4733
      4728      4731      4734      4732      4731      4733      4732      4731      4734
      4733      4731      4734      4731      4734      4735      4731      4734      4736
      4731      4734      4737      4735      4734      4736      4735      4734      4737
      4736      4734      4737      4734      4737      4738      4734      4737      4739
      4734      4737      4740      4738      4737      4739      4738      4737      4740
      4739      4737      4740      4737      4740      4741      4737      4740      4742
      4737      4740      4743      4741      4740      4742      4741      4740      4743
      4742      4740      4743      4740      4743      4744      4740      4743      4745
      4740      4743      4746      4744      4743      4745      4744      4743      4746
      4745      4743      4746      4743      4746      4747      4743      4746      4748
      4743      4746      4749      4747      4746      4748      4747      4746      4749
      4748      4746      4749      4746      4749      4750      4746      4749      4751
      4746      4749      4752      4750      4749      4751      4750      4749      4752
      4751      4749      4752      4749      4752      4753      4749      4752      4754
      4749      4752      4755      4753      4752      4754      4753      4752      4755
      4754      4752      4755      4752      4755      4756      4752      4755      4757
      4752      4755      4758      4756      4755      4757      4756      4755      4758
      4757      4755      4758      4755      4758      4759      4755      4758      4760
      4755      4758      4761      4759      4758      4760      4759      4758      4761
      4760      4758      4761      4758      4761      4762      4758      4761      4763
      4758      4761      4764      4762      4761      4763      4762      4761      4764
      4763      4761      4764      4761      4764      4765      4761      4764      4766
      4761      4764      4767      4765      4764      4766      4765      4764      4767
      4766      4764      4767      4722      4768      4769      4722      4768      4770
      4722      4768      4771      4769      4768      4770      4769      4768      4771
      4770      4768      4771      4768      4771      4772      4768      4771      4773
      4768      4771      4774      4772      4771      4773      4772      4771      4774
      4773      4771      4774      4771      4774      4775      4771      4774      4776
      4771      4774      4777      4775      4774      4776      4775      4774      4777
      4776      4774      4777      4774      4777      4778      4774      4777      4779
      4774      4777      4780      4778      4777      4779      4778      4777      4780
      4779      4777      4780      4777      4780      4781      4777      4780      4782
      4777      4780      4783      4781      4780      4782      4781      4780      4783
      4782      4780      4783      4780      4783      4784      4780      4783      4785
      4780      4783      4786      4784      4783      4785      4784      4783      4786
      4785      4783      4786      4783      4786      4787      4783      4786      4788
      4783      4786      4789      4787      4786      4788      4787      4786      4789
      4788      4786      4789      4786      4789      4790      4786      4789      4791
      4786      4789      4792      4790      4789      4791      4790      4789      4792
      4791      4789      4792      4789      4792      4793      4789      4792      4794
      4789      4792      4795      4793      4792      4794      4793      4792      4795
      4794      4792      4795      4792      4795      4796      4792      4795      4797
      4792      4795      4798      4796      4795      4797      4796      4795      4798
      4797      4795      4798      4795      4798      4799      4795      4798      4800
      4795      4798      4801      4799      4798      4800      4799      4798      4801
      4800      4798      4801      4798      4801      4802      4798      4801      4803
      4798      4801      4804      4802      4801      4803      4802      4801      4804
      4803      4801      4804      4801      4804      4805      4801      4804      4806
      4801      4804      4807      4805      4804      4806      4805      4804      4807
      4806      4804      4807      4804      4807      4808      4804      4807      4809
      4804      4807      4810      4808      4807      4809      4808      4807      4810
      4809      4807      4810      4812      4811      4816      4812      4811      4820
      4812      4811      4824      4816      4811      4820      4816      4811      4824
      4820      4811      4824      4811      4812      4813      4811      4812      4814
      4811      4812      4815      4813      4812      4814      4813      4812      4815
      4814      4812      4815      4811      4816      4817      4811      4816      4818
      4811      4816      4819      4817      4816      4818      4817      4816      4819
      4818      4816      4819      4811      4820      4821      4811      4820      4822
      4811      4820      4823      4821      4820      4822      4821      4820      4823
      4822      4820      4823      4811      4824      4825      4811      4824      4826
      4811      4824      4827      4825      4824      4826      4825      4824      4827
      4826      4824      4827      4824      4827      4828      4824      4827      4829
      4824      4827      4834      4828      4827      4829      4828      4827      4834
      4829      4827      4834      4831      4830      4832      4831      4830      4833
      4831      4830      4834      4832      4830      4833      4832      4830      4834
      4833      4830      4834      4830      4833      4835      4827      4834      4830
      4833      4835      4836      4833      4835      4837      4833      4835      4838
      4836      4835      4837      4836      4835      4838      4837      4835      4838
      4835      4838      4839      4835      4838      4840      4835      4838      4846
      4839      4838      4840      4839      4838      4846      4840      4838      4846
      4838      4840      4841      4840      4841      4842      4840      4841      4843
      4842      4841      4843      4841      4843      4844      4841      4843      4845
      4841      4843      4855      4844      4843      4845      4844      4843      4855
      4845      4843      4855      4838      4846      4847      4838      4846      4848
      4838      4846      4849      4847      4846      4848      4847      4846      4849
      4848      4846      4849      4846      4849      4850      4849      4850      4851
      4849      4850      4852      4851      4850      4852      4850      4852      4853
      4850      4852      4854      4850      4852      4898      4853      4852      4854
      4853      4852      4898      4854      4852      4898      4843      4855      4856
      4843      4855      4857      4843      4855      4858      4856      4855      4857
      4856      4855      4858      4857      4855      4858      4855      4858      4859
      4855      4858      4860      4855      4858      4861      4859      4858      4860
      4859      4858      4861      4860      4858      4861      4858      4861      4862
      4858      4861      4863      4858      4861      4864      4862      4861      4863
      4862      4861      4864      4863      4861      4864      4861      4864      4865
      4861      4864      4866      4861      4864      4867      4865      4864      4866
      4865      4864      4867      4866      4864      4867      4864      4867      4868
      4864      4867      4869      4864      4867      4870      4868      4867      4869
      4868      4867      4870      4869      4867      4870      4867      4870      4871
      4867      4870      4872      4867      4870      4873      4871      4870      4872
      4871      4870      4873      4872      4870      4873      4870      4873      4874
      4870      4873      4875      4870      4873      4876      4874      4873      4875
      4874      4873      4876      4875      4873      4876      4873      4876      4877
      4873      4876      4878      4873      4876      4879      4877      4876      4878
      4877      4876      4879      4878      4876      4879      4876      4879      4880
      4876      4879      4881      4876      4879      4882      4880      4879      4881
      4880      4879      4882      4881      4879      4882      4879      4882      4883
      4879      4882      4884      4879      4882      4885      4883      4882      4884
      4883      4882      4885      4884      4882      4885      4882      4885      4886
      4882      4885      4887      4882      4885      4888      4886      4885      4887
      4886      4885      4888      4887      4885      4888      4885      4888      4889
      4885      4888      4890      4885      4888      4891      4889      4888      4890
      4889      4888      4891      4890      4888      4891      4888      4891      4892
      4888      4891      4893      4888      4891      4894      4892      4891      4893
      4892      4891      4894      4893      4891      4894      4891      4894      4895
      4891      4894      4896      4891      4894      4897      4895      4894      4896
      4895      4894      4897      4896      4894      4897      4852      4898      4899
      4852      4898      4900      4852      4898      4901      4899      4898      4900
      4899      4898      4901      4900      4898      4901      4898      4901      4902
      4898      4901      4903      4898      4901      4904      4902      4901      4903
      4902      4901      4904      4903      4901      4904      4901      4904      4905
      4901      4904      4906      4901      4904      4907      4905      4904      4906
      4905      4904      4907      4906      4904      4907      4904      4907      4908
      4904      4907      4909      4904      4907      4910      4908      4907      4909
      4908      4907      4910      4909      4907      4910      4907      4910      4911
      4907      4910      4912      4907      4910      4913      4911      4910      4912
      4911      4910      4913      4912      4910      4913      4910      4913      4914
      4910      4913      4915      4910      4913      4916      4914      4913      4915
      4914      4913      4916      4915      4913      4916      4913      4916      4917
      4913      4916      4918      4913      4916      4919      4917      4916      4918
      4917      4916      4919      4918      4916      4919      4916      4919      4920
      4916      4919      4921      4916      4919      4922      4920      4919      4921
      4920      4919      4922      4921      4919      4922      4919      4922      4923
      4919      4922      4924      4919      4922      4925      4923      4922      4924
      4923      4922      4925      4924      4922      4925      4922      4925      4926
      4922      4925      4927      4922      4925      4928      4926      4925      4927
      4926      4925      4928      4927      4925      4928      4925      4928      4929
      4925      4928      4930      4925      4928      4931      4929      4928      4930
      4929      4928      4931      4930      4928      4931      4928      4931      4932
      4928      4931      4933      4928      4931      4934      4932      4931      4933
      4932      4931      4934      4933      4931      4934      4931      4934      4935
      4931      4934      4936      4931      4934      4937      4935      4934      4936
      4935      4934      4937      4936      4934      4937      4934      4937      4938
      4934      4937      4939      4934      4937      4940      4938      4937      4939
      4938      4937      4940      4939      4937      4940      4942      4941      4946
      4942      4941      4950      4942      4941      4954      4946      4941      4950
      4946      4941      4954      4950      4941      4954      4941      4942      4943
      4941      4942      4944      4941      4942      4945      4943      4942      4944
      4943      4942      4945      4944      4942      4945      4941      4946      4947
      4941      4946      4948      4941      4946      4949      4947      4946      4948
      4947      4946      4949      4948      4946      4949      4941      4950      4951
      4941      4950      4952      4941      4950      4953      4951      4950      4952
      4951      4950      4953      4952      4950      4953      4941      4954      4955
      4941      4954      4956      4941      4954      4957      4955      4954      4956
      4955      4954      4957      4956      4954      4957      4954      4957      4958
      4954      4957      4959      4954      4957      4964      4958      4957      4959
      4958      4957      4964      4959      4957      4964      4961      4960      4962
      4961      4960      4963      4961      4960      4964      4962      4960      4963
      4962      4960      4964      4963      4960      4964      4960      4963      4965
      4957      4964      4960      4963      4965      4966      4963      4965      4967
      4963      4965      4968      4966      4965      4967      4966      4965      4968
      4967      4965      4968      4965      4968      4969      4965      4968      4970
      4965      4968      4976      4969      4968      4970      4969      4968      4976
      4970      4968      4976      4968      4970      4971      4970      4971      4972
      4970      4971      4973      4972      4971      4973      4971      4973      4974
      4971      4973      4975      4971      4973      4985      4974      4973      4975
      4974      4973      4985      4975      4973      4985      4968      4976      4977
      4968      4976      4978      4968      4976      4979      4977      4976      4978
      4977      4976      4979      4978      4976      4979      4976      4979      4980
      4979      4980      4981      4979      4980      4982      4981      4980      4982
      4980      4982      4983      4980      4982      4984      4980      4982      5028
      4983      4982      4984      4983      4982      5028      4984      4982      5028
      4973      4985      4986      4973      4985      4987      4973      4985      4988
      4986      4985      4987      4986      4985      4988      4987      4985      4988
      4985      4988      4989      4985      4988      4990      4985      4988      4991
      4989      4988      4990      4989      4988      4991      4990      4988      4991
      4988      4991      4992      4988      4991      4993      4988      4991      4994
      4992      4991      4993      4992      4991      4994      4993      4991      4994
      4991      4994      4995      4991      4994      4996      4991      4994      4997
      4995      4994      4996      4995      4994      4997      4996      4994      4997
      4994      4997      4998      4994      4997      4999      4994      4997      5000
      4998      4997      4999      4998      4997      5000      4999      4997      5000
      4997      5000      5001      4997      5000      5002      4997      5000      5003
      5001      5000      5002      5001      5000      5003      5002      5000      5003
      5000      5003      5004      5000      5003      5005      5000      5003      5006
      5004      5003      5005      5004      5003      5006      5005      5003      5006
      5003      5006      5007      5003      5006      5008      5003      5006      5009
      5007      5006      5008      5007      5006      5009      5008      5006      5009
      5006      5009      5010      5006      5009      5011      5006      5009      5012
      5010      5009      5011      5010      5009      5012      5011      5009      5012
      5009      5012      5013      5009      5012      5014      5009      5012      5015
      5013      5012      5014      5013      5012      5015      5014      5012      5015
      5012      5015      5016      5012      5015      5017      5012      5015      5018
      5016      5015      5017      5016      5015      5018      5017      5015      5018
      5015      5018      5019      5015      5018      5020      5015      5018      5021
      5019      5018      5020      5019      5018      5021      5020      5018      5021
      5018      5021      5022      5018      5021      5023      5018      5021      5024
      5022      5021      5023      5022      5021      5024      5023      5021      5024
      5021      5024      5025      5021      5024      5026      5021      5024      5027
      5025      5024      5026      5025      5024      5027      5026      5024      5027
      4982      5028      5029      4982      5028      5030      4982      5028      5031
      5029      5028      5030      5029      5028      5031      5030      5028      5031
      5028      5031      5032      5028      5031      5033      5028      5031      5034
      5032      5031      5033      5032      5031      5034      5033      5031      5034
      5031      5034      5035      5031      5034      5036      5031      5034      5037
      5035      5034      5036      5035      5034      5037      5036      5034      5037
      5034      5037      5038      5034      5037      5039      5034      5037      5040
      5038      5037      5039      5038      5037      5040      5039      5037      5040
      5037      5040      5041      5037      5040      5042      5037      5040      5043
      5041      5040      5042      5041      5040      5043      5042      5040      5043
      5040      5043      5044      5040      5043      5045      5040      5043      5046
      5044      5043      5045      5044      5043      5046      5045      5043      5046
      5043      5046      5047      5043      5046      5048      5043      5046      5049
      5047      5046      5048      5047      5046      5049      5048      5046      5049
      5046      5049      5050      5046      5049      5051      5046      5049      5052
      5050      5049      5051      5050      5049      5052      5051      5049      5052
      5049      5052      5053      5049      5052      5054      5049      5052      5055
      5053      5052      5054      5053      5052      5055      5054      5052      5055
      5052      5055      5056      5052      5055      5057      5052      5055      5058
      5056      5055      5057      5056      5055      5058      5057      5055      5058
      5055      5058      5059      5055      5058      5060      5055      5058      5061
      5059      5058      5060      5059      5058      5061      5060      5058      5061
      5058      5061      5062      5058      5061      5063      5058      5061      5064
      5062      5061      5063      5062      5061      5064      5063      5061      5064
      5061      5064      5065      5061      5064      5066      5061      5064      5067
      5065      5064      5066      5065      5064      5067      5066      5064      5067
      5064      5067      5068      5064      5067      5069      5064      5067      5070
      5068      5067      5069      5068      5067      5070      5069      5067      5070
      5072      5071      5076      5072      5071      5080      5072      5071      5084
      5076      5071      5080      5076      5071      5084      5080      5071      5084
      5071      5072      5073      5071      5072      5074      5071      5072      5075
      5073      5072      5074      5073      5072      5075      5074      5072      5075
      5071      5076      5077      5071      5076      5078      5071      5076      5079
      5077      5076      5078      5077      5076      5079      5078      5076      5079
      5071      5080      5081      5071      5080      5082      5071      5080      5083
      5081      5080      5082      5081      5080      5083      5082      5080      5083
      5071      5084      5085      5071      5084      5086      5071      5084      5087
      5085      5084      5086      5085      5084      5087      5086      5084      5087
      5084      5087      5088      5084      5087      5089      5084      5087      5094
      5088      5087      5089      5088      5087      5094      5089      5087      5094
      5091      5090      5092      5091      5090      5093      5091      5090      5094
      5092      5090      5093      5092      5090      5094      5093      5090      5094
      5090      5093      5095      5087      5094      5090      5093      5095      5096
      5093      5095      5097      5093      5095      5098      5096      5095      5097
      5096      5095      5098      5097      5095      5098      5095      5098      5099
      5095      5098      5100      5095      5098      5106      5099      5098      5100
      5099      5098      5106      5100      5098      5106      5098      5100      5101
      5100      5101      5102      5100      5101      5103      5102      5101      5103
      5101      5103      5104      5101      5103      5105      5101      5103      5115
      5104      5103      5105      5104      5103      5115      5105      5103      5115
      5098      5106      5107      5098      5106      5108      5098      5106      5109
      5107      5106      5108      5107      5106      5109      5108      5106      5109
      5106      5109      5110      5109      5110      5111      5109      5110      5112
      5111      5110      5112      5110      5112      5113      5110      5112      5114
      5110      5112      5158      5113      5112      5114      5113      5112      5158
      5114      5112      5158      5103      5115      5116      5103      5115      5117
      5103      5115      5118      5116      5115      5117      5116      5115      5118
      5117      5115      5118      5115      5118      5119      5115      5118      5120
      5115      5118      5121      5119      5118      5120      5119      5118      5121
      5120      5118      5121      5118      5121      5122      5118      5121      5123
      5118      5121      5124      5122      5121      5123      5122      5121      5124
      5123      5121      5124      5121      5124      5125      5121      5124      5126
      5121      5124      5127      5125      5124      5126      5125      5124      5127
      5126      5124      5127      5124      5127      5128      5124      5127      5129
      5124      5127      5130      5128      5127      5129      5128      5127      5130
      5129      5127      5130      5127      5130      5131      5127      5130      5132
      5127      5130      5133      5131      5130      5132      5131      5130      5133
      5132      5130      5133      5130      5133      5134      5130      5133      5135
      5130      5133      5136      5134      5133      5135      5134      5133      5136
      5135      5133      5136      5133      5136      5137      5133      5136      5138
      5133      5136      5139      5137      5136      5138      5137      5136      5139
      5138      5136      5139      5136      5139      5140      5136      5139      5141
      5136      5139      5142      5140      5139      5141      5140      5139      5142
      5141      5139      5142      5139      5142      5143      5139      5142      5144
      5139      5142      5145      5143      5142      5144      5143      5142      5145
      5144      5142      5145      5142      5145      5146      5142      5145      5147
      5142      5145      5148      5146      5145      5147      5146      5145      5148
      5147      5145      5148      5145      5148      5149      5145      5148      5150
      5145      5148      5151      5149      5148      5150      5149      5148      5151
      5150      5148      5151      5148      5151      5152      5148      5151      5153
      5148      5151      5154      5152      5151      5153      5152      5151      5154
      5153      5151      5154      5151      5154      5155      5151      5154      5156
      5151      5154      5157      5155      5154      5156      5155      5154      5157
      5156      5154      5157      5112      5158      5159      5112      5158      5160
      5112      5158      5161      5159      5158      5160      5159      5158      5161
      5160      5158      5161      5158      5161      5162      5158      5161      5163
      5158      5161      5164      5162      5161      5163      5162      5161      5164
      5163      5161      5164      5161      5164      5165      5161      5164      5166
      5161      5164      5167      5165      5164      5166      5165      5164      5167
      5166      5164      5167      5164      5167      5168      5164      5167      5169
      5164      5167      5170      5168      5167      5169      5168      5167      5170
      5169      5167      5170      5167      5170      5171      5167      5170      5172
      5167      5170      5173      5171      5170      5172      5171      5170      5173
      5172      5170      5173      5170      5173      5174      5170      5173      5175
      5170      5173      5176      5174      5173      5175      5174      5173      5176
      5175      5173      5176      5173      5176      5177      5173      5176      5178
      5173      5176      5179      5177      5176      5178      5177      5176      5179
      5178      5176      5179      5176      5179      5180      5176      5179      5181
      5176      5179      5182      5180      5179      5181      5180      5179      5182
      5181      5179      5182      5179      5182      5183      5179      5182      5184
      5179      5182      5185      5183      5182      5184      5183      5182      5185
      5184      5182      5185      5182      5185      5186      5182      5185      5187
      5182      5185      5188      5186      5185      5187      5186      5185      5188
      5187      5185      5188      5185      5188      5189      5185      5188      5190
      5185      5188      5191      5189      5188      5190      5189      5188      5191
      5190      5188      5191      5188      5191      5192      5188      5191      5193
      5188      5191      5194      5192      5191      5193      5192      5191      5194
      5193      5191      5194      5191      5194      5195      5191      5194      5196
      5191      5194      5197      5195      5194      5196      5195      5194      5197
      5196      5194      5197      5194      5197      5198      5194      5197      5199
      5194      5197      5200      5198      5197      5199      5198      5197      5200
      5199      5197      5200      5202      5201      5206      5202      5201      5210
      5202      5201      5214      5206      5201      5210      5206      5201      5214
      5210      5201      5214      5201      5202      5203      5201      5202      5204
      5201      5202      5205      5203      5202      5204      5203      5202      5205
      5204      5202      5205      5201      5206      5207      5201      5206      5208
      5201      5206      5209      5207      5206      5208      5207      5206      5209
      5208      5206      5209      5201      5210      5211      5201      5210      5212
      5201      5210      5213      5211      5210      5212      5211      5210      5213
      5212      5210      5213      5201      5214      5215      5201      5214      5216
      5201      5214      5217      5215      5214      5216      5215      5214      5217
      5216      5214      5217      5214      5217      5218      5214      5217      5219
      5214      5217      5224      5218      5217      5219      5218      5217      5224
      5219      5217      5224      5221      5220      5222      5221      5220      5223
      5221      5220      5224      5222      5220      5223      5222      5220      5224
      5223      5220      5224      5220      5223      5225      5217      5224      5220
      5223      5225      5226      5223      5225      5227      5223      5225      5228
      5226      5225      5227      5226      5225      5228      5227      5225      5228
      5225      5228      5229      5225      5228      5230      5225      5228      5236
      5229      5228      5230      5229      5228      5236      5230      5228      5236
      5228      5230      5231      5230      5231      5232      5230      5231      5233
      5232      5231      5233      5231      5233      5234      5231      5233      5235
      5231      5233      5245      5234      5233      5235      5234      5233      5245
      5235      5233      5245      5228      5236      5237      5228      5236      5238
      5228      5236      5239      5237      5236      5238      5237      5236      5239
      5238      5236      5239      5236      5239      5240      5239      5240      5241
      5239      5240      5242      5241      5240      5242      5240      5242      5243
      5240      5242      5244      5240      5242      5288      5243      5242      5244
      5243      5242      5288      5244      5242      5288      5233      5245      5246
      5233      5245      5247      5233      5245      5248      5246      5245      5247
      5246      5245      5248      5247      5245      5248      5245      5248      5249
      5245      5248      5250      5245      5248      5251      5249      5248      5250
      5249      5248      5251      5250      5248      5251      5248      5251      5252
      5248      5251      5253      5248      5251      5254      5252      5251      5253
      5252      5251      5254      5253      5251      5254      5251      5254      5255
      5251      5254      5256      5251      5254      5257      5255      5254      5256
      5255      5254      5257      5256      5254      5257      5254      5257      5258
      5254      5257      5259      5254      5257      5260      5258      5257      5259
      5258      5257      5260      5259      5257      5260      5257      5260      5261
      5257      5260      5262      5257      5260      5263      5261      5260      5262
      5261      5260      5263      5262      5260      5263      5260      5263      5264
      5260      5263      5265      5260      5263      5266      5264      5263      5265
      5264      5263      5266      5265      5263      5266      5263      5266      5267
      5263      5266      5268      5263      5266      5269      5267      5266      5268
      5267      5266      5269      5268      5266      5269      5266      5269      5270
      5266      5269      5271      5266      5269      5272      5270      5269      5271
      5270      5269      5272      5271      5269      5272      5269      5272      5273
      5269      5272      5274      5269      5272      5275      5273      5272      5274
      5273      5272      5275      5274      5272      5275      5272      5275      5276
      5272      5275      5277      5272      5275      5278      5276      5275      5277
      5276      5275      5278      5277      5275      5278      5275      5278      5279
      5275      5278      5280      5275      5278      5281      5279      5278      5280
      5279      5278      5281      5280      5278      5281      5278      5281      5282
      5278      5281      5283      5278      5281      5284      5282      5281      5283
      5282      5281      5284      5283      5281      5284      5281      5284      5285
      5281      5284      5286      5281      5284      5287      5285      5284      5286
      5285      5284      5287      5286      5284      5287      5242      5288      5289
      5242      5288      5290      5242      5288      5291      5289      5288      5290
      5289      5288      5291      5290      5288      5291      5288      5291      5292
      5288      5291      5293      5288      5291      5294      5292      5291      5293
      5292      5291      5294      5293      5291      5294      5291      5294      5295
      5291      5294      5296      5291      5294      5297      5295      5294      5296
      5295      5294      5297      5296      5294      5297      5294      5297      5298
      5294      5297      5299      5294      5297      5300      5298      5297      5299
      5298      5297      5300      5299      5297      5300      5297      5300      5301
      5297      5300      5302      5297      5300      5303      5301      5300      5302
      5301      5300      5303      5302      5300      5303      5300      5303      5304
      5300      5303      5305      5300      5303      5306      5304      5303      5305
      5304      5303      5306      5305      5303      5306      5303      5306      5307
      5303      5306      5308      5303      5306      5309      5307      5306      5308
      5307      5306      5309      5308      5306      5309      5306      5309      5310
      5306      5309      5311      5306      5309      5312      5310      5309      5311
      5310      5309      5312      5311      5309      5312      5309      5312      5313
      5309      5312      5314      5309      5312      5315      5313      5312      5314
      5313      5312      5315      5314      5312      5315      5312      5315      5316
      5312      5315      5317      5312      5315      5318      5316      5315      5317
      5316      5315      5318      5317      5315      5318      5315      5318      5319
      5315      5318      5320      5315      5318      5321      5319      5318      5320
      5319      5318      5321      5320      5318      5321      5318      5321      5322
      5318      5321      5323      5318      5321      5324      5322      5321      5323
      5322      5321      5324      5323      5321      5324      5321      5324      5325
      5321      5324      5326      5321      5324      5327      5325      5324      5326
      5325      5324      5327      5326      5324      5327      5324      5327      5328
      5324      5327      5329      5324      5327      5330      5328      5327      5329
      5328      5327      5330      5329      5327      5330      5332      5331      5336
      5332      5331      5340      5332      5331      5344      5336      5331      5340
      5336      5331      5344      5340      5331      5344      5331      5332      5333
      5331      5332      5334      5331      5332      5335      5333      5332      5334
      5333      5332      5335      5334      5332      5335      5331      5336      5337
      5331      5336      5338      5331      5336      5339      5337      5336      5338
      5337      5336      5339      5338      5336      5339      5331      5340      5341
      5331      5340      5342      5331      5340      5343      5341      5340      5342
      5341      5340      5343      5342      5340      5343      5331      5344      5345
      5331      5344      5346      5331      5344      5347      5345      5344      5346
      5345      5344      5347      5346      5344      5347      5344      5347      5348
      5344      5347      5349      5344      5347      5354      5348      5347      5349
      5348      5347      5354      5349      5347      5354      5351      5350      5352
      5351      5350      5353      5351      5350      5354      5352      5350      5353
      5352      5350      5354      5353      5350      5354      5350      5353      5355
      5347      5354      5350      5353      5355      5356      5353      5355      5357
      5353      5355      5358      5356      5355      5357      5356      5355      5358
      5357      5355      5358      5355      5358      5359      5355      5358      5360
      5355      5358      5366      5359      5358      5360      5359      5358      5366
      5360      5358      5366      5358      5360      5361      5360      5361      5362
      5360      5361      5363      5362      5361      5363      5361      5363      5364
      5361      5363      5365      5361      5363      5375      5364      5363      5365
      5364      5363      5375      5365      5363      5375      5358      5366      5367
      5358      5366      5368      5358      5366      5369      5367      5366      5368
      5367      5366      5369      5368      5366      5369      5366      5369      5370
      5369      5370      5371      5369      5370      5372      5371      5370      5372
      5370      5372      5373      5370      5372      5374      5370      5372      5418
      5373      5372      5374      5373      5372      5418      5374      5372      5418
      5363      5375      5376      5363      5375      5377      5363      5375      5378
      5376      5375      5377      5376      5375      5378      5377      5375      5378
      5375      5378      5379      5375      5378      5380      5375      5378      5381
      5379      5378      5380      5379      5378      5381      5380      5378      5381
      5378      5381      5382      5378      5381      5383      5378      5381      5384
      5382      5381      5383      5382      5381      5384      5383      5381      5384
      5381      5384      5385      5381      5384      5386      5381      5384      5387
      5385      5384      5386      5385      5384      5387      5386      5384      5387
      5384      5387      5388      5384      5387      5389      5384      5387      5390
      5388      5387      5389      5388      5387      5390      5389      5387      5390
      5387      5390      5391      5387      5390      5392      5387      5390      5393
      5391      5390      5392      5391      5390      5393      5392      5390      5393
      5390      5393      5394      5390      5393      5395      5390      5393      5396
      5394      5393      5395      5394      5393      5396      5395      5393      5396
      5393      5396      5397      5393      5396      5398      5393      5396      5399
      5397      5396      5398      5397      5396      5399      5398      5396      5399
      5396      5399      5400      5396      5399      5401      5396      5399      5402
      5400      5399      5401      5400      5399      5402      5401      5399      5402
      5399      5402      5403      5399      5402      5404      5399      5402      5405
      5403      5402      5404      5403      5402      5405      5404      5402      5405
      5402      5405      5406      5402      5405      5407      5402      5405      5408
      5406      5405      5407      5406      5405      5408      5407      5405      5408
      5405      5408      5409      5405      5408      5410      5405      5408      5411
      5409      5408      5410      5409      5408      5411      5410      5408      5411
      5408      5411      5412      5408      5411      5413      5408      5411      5414
      5412      5411      5413      5412      5411      5414      5413      5411      5414
      5411      5414      5415      5411      5414      5416      5411      5414      5417
      5415      5414      5416      5415      5414      5417      5416      5414      5417
      5372      5418      5419      5372      5418      5420      5372      5418      5421
      5419      5418      5420      5419      5418      5421      5420      5418      5421
      5418      5421      5422      5418      5421      5423      5418      5421      5424
      5422      5421      5423      5422      5421      5424      5423      5421      5424
      5421      5424      5425      5421      5424      5426      5421      5424      5427
      5425      5424      5426      5425      5424      5427      5426      5424      5427
      5424      5427      5428      5424      5427      5429      5424      5427      5430
      5428      5427      5429      5428      5427      5430      5429      5427      5430
      5427      5430      5431      5427      5430      5432      5427      5430      5433
      5431      5430      5432      5431      5430      5433      5432      5430      5433
      5430      5433      5434      5430      5433      5435      5430      5433      5436
      5434      5433      5435      5434      5433      5436      5435      5433      5436
      5433      5436      5437      5433      5436      5438      5433      5436      5439
      5437      5436      5438      5437      5436      5439      5438      5436      5439
      5436      5439      5440      5436      5439      5441      5436      5439      5442
      5440      5439      5441      5440      5439      5442      5441      5439      5442
      5439      5442      5443      5439      5442      5444      5439      5442      5445
      5443      5442      5444      5443      5442      5445      5444      5442      5445
      5442      5445      5446      5442      5445      5447      5442      5445      5448
      5446      5445      5447      5446      5445      5448      5447      5445      5448
      5445      5448      5449      5445      5448      5450      5445      5448      5451
      5449      5448      5450      5449      5448      5451      5450      5448      5451
      5448      5451      5452      5448      5451      5453      5448      5451      5454
      5452      5451      5453      5452      5451      5454      5453      5451      5454
      5451      5454      5455      5451      5454      5456      5451      5454      5457
      5455      5454      5456      5455      5454      5457      5456      5454      5457
      5454      5457      5458      5454      5457      5459      5454      5457      5460
      5458      5457      5459      5458      5457      5460      5459      5457      5460
      5462      5461      5466      5462      5461      5470      5462      5461      5474
      5466      5461      5470      5466      5461      5474      5470      5461      5474
      5461      5462      5463      5461      5462      5464      5461      5462      5465
      5463      5462      5464      5463      5462      5465      5464      5462      5465
      5461      5466      5467      5461      5466      5468      5461      5466      5469
      5467      5466      5468      5467      5466      5469      5468      5466      5469
      5461      5470      5471      5461      5470      5472      5461      5470      5473
      5471      5470      5472      5471      5470      5473      5472      5470      5473
      5461      5474      5475      5461      5474      5476      5461      5474      5477
      5475      5474      5476      5475      5474      5477      5476      5474      5477
      5474      5477      5478      5474      5477      5479      5474      5477      5484
      5478      5477      5479      5478      5477      5484      5479      5477      5484
      5481      5480      5482      5481      5480      5483      5481      5480      5484
      5482      5480      5483      5482      5480      5484      5483      5480      5484
      5480      5483      5485      5477      5484      5480      5483      5485      5486
      5483      5485      5487      5483      5485      5488      5486      5485      5487
      5486      5485      5488      5487      5485      5488      5485      5488      5489
      5485      5488      5490      5485      5488      5496      5489      5488      5490
      5489      5488      5496      5490      5488      5496      5488      5490      5491
      5490      5491      5492      5490      5491      5493      5492      5491      5493
      5491      5493      5494      5491      5493      5495      5491      5493      5505
      5494      5493      5495      5494      5493      5505      5495      5493      5505
      5488      5496      5497      5488      5496      5498      5488      5496      5499
      5497      5496      5498      5497      5496      5499      5498      5496      5499
      5496      5499      5500      5499      5500      5501      5499      5500      5502
      5501      5500      5502      5500      5502      5503      5500      5502      5504
      5500      5502      5548      5503      5502      5504      5503      5502      5548
      5504      5502      5548      5493      5505      5506      5493      5505      5507
      5493      5505      5508      5506      5505      5507      5506      5505      5508
      5507      5505      5508      5505      5508      5509      5505      5508      5510
      5505      5508      5511      5509      5508      5510      5509      5508      5511
      5510      5508      5511      5508      5511      5512      5508      5511      5513
      5508      5511      5514      5512      5511      5513      5512      5511      5514
      5513      5511      5514      5511      5514      5515      5511      5514      5516
      5511      5514      5517      5515      5514      5516      5515      5514      5517
      5516      5514      5517      5514      5517      5518      5514      5517      5519
      5514      5517      5520      5518      5517      5519      5518      5517      5520
      5519      5517      5520      5517      5520      5521      5517      5520      5522
      5517      5520      5523      5521      5520      5522      5521      5520      5523
      5522      5520      5523      5520      5523      5524      5520      5523      5525
      5520      5523      5526      5524      5523      5525      5524      5523      5526
      5525      5523      5526      5523      5526      5527      5523      5526      5528
      5523      5526      5529      5527      5526      5528      5527      5526      5529
      5528      5526      5529      5526      5529      5530      5526      5529      5531
      5526      5529      5532      5530      5529      5531      5530      5529      5532
      5531      5529      5532      5529      5532      5533      5529      5532      5534
      5529      5532      5535      5533      5532      5534      5533      5532      5535
      5534      5532      5535      5532      5535      5536      5532      5535      5537
      5532      5535      5538      5536      5535      5537      5536      5535      5538
      5537      5535      5538      5535      5538      5539      5535      5538      5540
      5535      5538      5541      5539      5538      5540      5539      5538      5541
      5540      5538      5541      5538      5541      5542      5538      5541      5543
      5538      5541      5544      5542      5541      5543      5542      5541      5544
      5543      5541      5544      5541      5544      5545      5541      5544      5546
      5541      5544      5547      5545      5544      5546      5545      5544      5547
      5546      5544      5547      5502      5548      5549      5502      5548      5550
      5502      5548      5551      5549      5548      5550      5549      5548      5551
      5550      5548      5551      5548      5551      5552      5548      5551      5553
      5548      5551      5554      5552      5551      5553      5552      5551      5554
      5553      5551      5554      5551      5554      5555      5551      5554      5556
      5551      5554      5557      5555      5554      5556      5555      5554      5557
      5556      5554      5557      5554      5557      5558      5554      5557      5559
      5554      5557      5560      5558      5557      5559      5558      5557      5560
      5559      5557      5560      5557      5560      5561      5557      5560      5562
      5557      5560      5563      5561      5560      5562      5561      5560      5563
      5562      5560      5563      5560      5563      5564      5560      5563      5565
      5560      5563      5566      5564      5563      5565      5564      5563      5566
      5565      5563      5566      5563      5566      5567      5563      5566      5568
      5563      5566      5569      5567      5566      5568      5567      5566      5569
      5568      5566      5569      5566      5569      5570      5566      5569      5571
      5566      5569      5572      5570      5569      5571      5570      5569      5572
      5571      5569      5572      5569      5572      5573      5569      5572      5574
      5569      5572      5575      5573      5572      5574      5573      5572      5575
      5574      5572      5575      5572      5575      5576      5572      5575      5577
      5572      5575      5578      5576      5575      5577      5576      5575      5578
      5577      5575      5578      5575      5578      5579      5575      5578      5580
      5575      5578      5581      5579      5578      5580      5579      5578      5581
      5580      5578      5581      5578      5581      5582      5578      5581      5583
      5578      5581      5584      5582      5581      5583      5582      5581      5584
      5583      5581      5584      5581      5584      5585      5581      5584      5586
      5581      5584      5587      5585      5584      5586      5585      5584      5587
      5586      5584      5587      5584      5587      5588      5584      5587      5589
      5584      5587      5590      5588      5587      5589      5588      5587      5590
      5589      5587      5590      5592      5591      5596      5592      5591      5600
      5592      5591      5604      5596      5591      5600      5596      5591      5604
      5600      5591      5604      5591      5592      5593      5591      5592      5594
      5591      5592      5595      5593      5592      5594      5593      5592      5595
      5594      5592      5595      5591      5596      5597      5591      5596      5598
      5591      5596      5599      5597      5596      5598      5597      5596      5599
      5598      5596      5599      5591      5600      5601      5591      5600      5602
      5591      5600      5603      5601      5600      5602      5601      5600      5603
      5602      5600      5603      5591      5604      5605      5591      5604      5606
      5591      5604      5607      5605      5604      5606      5605      5604      5607
      5606      5604      5607      5604      5607      5608      5604      5607      5609
      5604      5607      5614      5608      5607      5609      5608      5607      5614
      5609      5607      5614      5611      5610      5612      5611      5610      5613
      5611      5610      5614      5612      5610      5613      5612      5610      5614
      5613      5610      5614      5610      5613      5615      5607      5614      5610
      5613      5615      5616      5613      5615      5617      5613      5615      5618
      5616      5615      5617      5616      5615      5618      5617      5615      5618
      5615      5618      5619      5615      5618      5620      5615      5618      5626
      5619      5618      5620      5619      5618      5626      5620      5618      5626
      5618      5620      5621      5620      5621      5622      5620      5621      5623
      5622      5621      5623      5621      5623      5624      5621      5623      5625
      5621      5623      5635      5624      5623      5625      5624      5623      5635
      5625      5623      5635      5618      5626      5627      5618      5626      5628
      5618      5626      5629      5627      5626      5628      5627      5626      5629
      5628      5626      5629      5626      5629      5630      5629      5630      5631
      5629      5630      5632      5631      5630      5632      5630      5632      5633
      5630      5632      5634      5630      5632      5678      5633      5632      5634
      5633      5632      5678      5634      5632      5678      5623      5635      5636
      5623      5635      5637      5623      5635      5638      5636      5635      5637
      5636      5635      5638      5637      5635      5638      5635      5638      5639
      5635      5638      5640      5635      5638      5641      5639      5638      5640
      5639      5638      5641      5640      5638      5641      5638      5641      5642
      5638      5641      5643      5638      5641      5644      5642      5641      5643
      5642      5641      5644      5643      5641      5644      5641      5644      5645
      5641      5644      5646      5641      5644      5647      5645      5644      5646
      5645      5644      5647      5646      5644      5647      5644      5647      5648
      5644      5647      5649      5644      5647      5650      5648      5647      5649
      5648      5647      5650      5649      5647      5650      5647      5650      5651
      5647      5650      5652      5647      5650      5653      5651      5650      5652
      5651      5650      5653      5652      5650      5653      5650      5653      5654
      5650      5653      5655      5650      5653      5656      5654      5653      5655
      5654      5653      5656      5655      5653      5656      5653      5656      5657
      5653      5656      5658      5653      5656      5659      5657      5656      5658
      5657      5656      5659      5658      5656      5659      5656      5659      5660
      5656      5659      5661      5656      5659      5662      5660      5659      5661
      5660      5659      5662      5661      5659      5662      5659      5662      5663
      5659      5662      5664      5659      5662      5665      5663      5662      5664
      5663      5662      5665      5664      5662      5665      5662      5665      5666
      5662      5665      5667      5662      5665      5668      5666      5665      5667
      5666      5665      5668      5667      5665      5668      5665      5668      5669
      5665      5668      5670      5665      5668      5671      5669      5668      5670
      5669      5668      5671      5670      5668      5671      5668      5671      5672
      5668      5671      5673      5668      5671      5674      5672      5671      5673
      5672      5671      5674      5673      5671      5674      5671      5674      5675
      5671      5674      5676      5671      5674      5677      5675      5674      5676
      5675      5674      5677      5676      5674      5677      5632      5678      5679
      5632      5678      5680      5632      5678      5681      5679      5678      5680
      5679      5678      5681      5680      5678      5681      5678      5681      5682
      5678      5681      5683      5678      5681      5684      5682      5681      5683
      5682      5681      5684      5683      5681      5684      5681      5684      5685
      5681      5684      5686      5681      5684      5687      5685      5684      5686
      5685      5684      5687      5686      5684      5687      5684      5687      5688
      5684      5687      5689      5684      5687      5690      5688      5687      5689
      5688      5687      5690      5689      5687      5690      5687      5690      5691
      5687      5690      5692      5687      5690      5693      5691      5690      5692
      5691      5690      5693      5692      5690      5693      5690      5693      5694
      5690      5693      5695      5690      5693      5696      5694      5693      5695
      5694      5693      5696      5695      5693      5696      5693      5696      5697
      5693      5696      5698      5693      5696      5699      5697      5696      5698
      5697      5696      5699      5698      5696      5699      5696      5699      5700
      5696      5699      5701      5696      5699      5702      5700      5699      5701
      5700      5699      5702      5701      5699      5702      5699      5702      5703
      5699      5702      5704      5699      5702      5705      5703      5702      5704
      5703      5702      5705      5704      5702      5705      5702      5705      5706
      5702      5705      5707      5702      5705      5708      5706      5705      5707
      5706      5705      5708      5707      5705      5708      5705      5708      5709
      5705      5708      5710      5705      5708      5711      5709      5708      5710
      5709      5708      5711      5710      5708      5711      5708      5711      5712
      5708      5711      5713      5708      5711      5714      5712      5711      5713
      5712      5711      5714      5713      5711      5714      5711      5714      5715
      5711      5714      5716      5711      5714      5717      5715      5714      5716
      5715      5714      5717      5716      5714      5717      5714      5717      5718
      5714      5717      5719      5714      5717      5720      5718      5717      5719
      5718      5717      5720      5719      5717      5720      5722      5721      5726
      5722      5721      5730      5722      5721      5734      5726      5721      5730
      5726      5721      5734      5730      5721      5734      5721      5722      5723
      5721      5722      5724      5721      5722      5725      5723      5722      5724
      5723      5722      5725      5724      5722      5725      5721      5726      5727
      5721      5726      5728      5721      5726      5729      5727      5726      5728
      5727      5726      5729      5728      5726      5729      5721      5730      5731
      5721      5730      5732      5721      5730      5733      5731      5730      5732
      5731      5730      5733      5732      5730      5733      5721      5734      5735
      5721      5734      5736      5721      5734      5737      5735      5734      5736
      5735      5734      5737      5736      5734      5737      5734      5737      5738
      5734      5737      5739      5734      5737      5744      5738      5737      5739
      5738      5737      5744      5739      5737      5744      5741      5740      5742
      5741      5740      5743      5741      5740      5744      5742      5740      5743
      5742      5740      5744      5743      5740      5744      5740      5743      5745
      5737      5744      5740      5743      5745      5746      5743      5745      5747
      5743      5745      5748      5746      5745      5747      5746      5745      5748
      5747      5745      5748      5745      5748      5749      5745      5748      5750
      5745      5748      5756      5749      5748      5750      5749      5748      5756
      5750      5748      5756      5748      5750      5751      5750      5751      5752
      5750      5751      5753      5752      5751      5753      5751      5753      5754
      5751      5753      5755      5751      5753      5765      5754      5753      5755
      5754      5753      5765      5755      5753      5765      5748      5756      5757
      5748      5756      5758      5748      5756      5759      5757      5756      5758
      5757      5756      5759      5758      5756      5759      5756      5759      5760
      5759      5760      5761      5759      5760      5762      5761      5760      5762
      5760      5762      5763      5760      5762      5764      5760      5762      5808
      5763      5762      5764      5763      5762      5808      5764      5762      5808
      5753      5765      5766      5753      5765      5767      5753      5765      5768
      5766      5765      5767      5766      5765      5768      5767      5765      5768
      5765      5768      5769      5765      5768      5770      5765      5768      5771
      5769      5768      5770      5769      5768      5771      5770      5768      5771
      5768      5771      5772      5768      5771      5773      5768      5771      5774
      5772      5771      5773      5772      5771      5774      5773      5771      5774
      5771      5774      5775      5771      5774      5776      5771      5774      5777
      5775      5774      5776      5775      5774      5777      5776      5774      5777
      5774      5777      5778      5774      5777      5779      5774      5777      5780
      5778      5777      5779      5778      5777      5780      5779      5777      5780
      5777      5780      5781      5777      5780      5782      5777      5780      5783
      5781      5780      5782      5781      5780      5783      5782      5780      5783
      5780      5783      5784      5780      5783      5785      5780      5783      5786
      5784      5783      5785      5784      5783      5786      5785      5783      5786
      5783      5786      5787      5783      5786      5788      5783      5786      5789
      5787      5786      5788      5787      5786      5789      5788      5786      5789
      5786      5789      5790      5786      5789      5791      5786      5789      5792
      5790      5789      5791      5790      5789      5792      5791      5789      5792
      5789      5792      5793      5789      5792      5794      5789      5792      5795
      5793      5792      5794      5793      5792      5795      5794      5792      5795
      5792      5795      5796      5792      5795      5797      5792      5795      5798
      5796      5795      5797      5796      5795      5798      5797      5795      5798
      5795      5798      5799      5795      5798      5800      5795      5798      5801
      5799      5798      5800      5799      5798      5801      5800      5798      5801
      5798      5801      5802      5798      5801      5803      5798      5801      5804
      5802      5801      5803      5802      5801      5804      5803      5801      5804
      5801      5804      5805      5801      5804      5806      5801      5804      5807
      5805      5804      5806      5805      5804      5807      5806      5804      5807
      5762      5808      5809      5762      5808      5810      5762      5808      5811
      5809      5808      5810      5809      5808      5811      5810      5808      5811
      5808      5811      5812      5808      5811      5813      5808      5811      5814
      5812      5811      5813      5812      5811      5814      5813      5811      5814
      5811      5814      5815      5811      5814      5816      5811      5814      5817
      5815      5814      5816      5815      5814      5817      5816      5814      5817
      5814      5817      5818      5814      5817      5819      5814      5817      5820
      5818      5817      5819      5818      5817      5820      5819      5817      5820
      5817      5820      5821      5817      5820      5822      5817      5820      5823
      5821      5820      5822      5821      5820      5823      5822      5820      5823
      5820      5823      5824      5820      5823      5825      5820      5823      5826
      5824      5823      5825      5824      5823      5826      5825      5823      5826
      5823      5826      5827      5823      5826      5828      5823      5826      5829
      5827      5826      5828      5827      5826      5829      5828      5826      5829
      5826      5829      5830      5826      5829      5831      5826      5829      5832
      5830      5829      5831      5830      5829      5832      5831      5829      5832
      5829      5832      5833      5829      5832      5834      5829      5832      5835
      5833      5832      5834      5833      5832      5835      5834      5832      5835
      5832      5835      5836      5832      5835      5837      5832      5835      5838
      5836      5835      5837      5836      5835      5838      5837      5835      5838
      5835      5838      5839      5835      5838      5840      5835      5838      5841
      5839      5838      5840      5839      5838      5841      5840      5838      5841
      5838      5841      5842      5838      5841      5843      5838      5841      5844
      5842      5841      5843      5842      5841      5844      5843      5841      5844
      5841      5844      5845      5841      5844      5846      5841      5844      5847
      5845      5844      5846      5845      5844      5847      5846      5844      5847
      5844      5847      5848      5844      5847      5849      5844      5847      5850
      5848      5847      5849      5848      5847      5850      5849      5847      5850
      5852      5851      5856      5852      5851      5860      5852      5851      5864
      5856      5851      5860      5856      5851      5864      5860      5851      5864
      5851      5852      5853      5851      5852      5854      5851      5852      5855
      5853      5852      5854      5853      5852      5855      5854      5852      5855
      5851      5856      5857      5851      5856      5858      5851      5856      5859
      5857      5856      5858      5857      5856      5859      5858      5856      5859
      5851      5860      5861      5851      5860      5862      5851      5860      5863
      5861      5860      5862      5861      5860      5863      5862      5860      5863
      5851      5864      5865      5851      5864      5866      5851      5864      5867
      5865      5864      5866      5865      5864      5867      5866      5864      5867
      5864      5867      5868      5864      5867      5869      5864      5867      5874
      5868      5867      5869      5868      5867      5874      5869      5867      5874
      5871      5870      5872      5871      5870      5873      5871      5870      5874
      5872      5870      5873      5872      5870      5874      5873      5870      5874
      5870      5873      5875      5867      5874      5870      5873      5875      5876
      5873      5875      5877      5873      5875      5878      5876      5875      5877
      5876      5875      5878      5877      5875      5878      5875      5878      5879
      5875      5878      5880      5875      5878      5886      5879      5878      5880
      5879      5878      5886      5880      5878      5886      5878      5880      5881
      5880      5881      5882      5880      5881      5883      5882      5881      5883
      5881      5883      5884      5881      5883      5885      5881      5883      5895
      5884      5883      5885      5884      5883      5895      5885      5883      5895
      5878      5886      5887      5878      5886      5888      5878      5886      5889
      5887      5886      5888      5887      5886      5889      5888      5886      5889
      5886      5889      5890      5889      5890      5891      5889      5890      5892
      5891      5890      5892      5890      5892      5893      5890      5892      5894
      5890      5892      5938      5893      5892      5894      5893      5892      5938
      5894      5892      5938      5883      5895      5896      5883      5895      5897
      5883      5895      5898      5896      5895      5897      5896      5895      5898
      5897      5895      5898      5895      5898      5899      5895      5898      5900
      5895      5898      5901      5899      5898      5900      5899      5898      5901
      5900      5898      5901      5898      5901      5902      5898      5901      5903
      5898      5901      5904      5902      5901      5903      5902      5901      5904
      5903      5901      5904      5901      5904      5905      5901      5904      5906
      5901      5904      5907      5905      5904      5906      5905      5904      5907
      5906      5904      5907      5904      5907      5908      5904      5907      5909
      5904      5907      5910      5908      5907      5909      5908      5907      5910
      5909      5907      5910      5907      5910      5911      5907      5910      5912
      5907      5910      5913      5911      5910      5912      5911      5910      5913
      5912      5910      5913      5910      5913      5914      5910      5913      5915
      5910      5913      5916      5914      5913      5915      5914      5913      5916
      5915      5913      5916      5913      5916      5917      5913      5916      5918
      5913      5916      5919      5917      5916      5918      5917      5916      5919
      5918      5916      5919      5916      5919      5920      5916      5919      5921
      5916      5919      5922      5920      5919      5921      5920      5919      5922
      5921      5919      5922      5919      5922      5923      5919      5922      5924
      5919      5922      5925      5923      5922      5924      5923      5922      5925
      5924      5922      5925      5922      5925      5926      5922      5925      5927
      5922      5925      5928      5926      5925      5927      5926      5925      5928
      5927      5925      5928      5925      5928      5929      5925      5928      5930
      5925      5928      5931      5929      5928      5930      5929      5928      5931
      5930      5928      5931      5928      5931      5932      5928      5931      5933
      5928      5931      5934      5932      5931      5933      5932      5931      5934
      5933      5931      5934      5931      5934      5935      5931      5934      5936
      5931      5934      5937      5935      5934      5936      5935      5934      5937
      5936      5934      5937      5892      5938      5939      5892      5938      5940
      5892      5938      5941      5939      5938      5940      5939      5938      5941
      5940      5938      5941      5938      5941      5942      5938      5941      5943
      5938      5941      5944      5942      5941      5943      5942      5941      5944
      5943      5941      5944      5941      5944      5945      5941      5944      5946
      5941      5944      5947      5945      5944      5946      5945      5944      5947
      5946      5944      5947      5944      5947      5948      5944      5947      5949
      5944      5947      5950      5948      5947      5949      5948      5947      5950
      5949      5947      5950      5947      5950      5951      5947      5950      5952
      5947      5950      5953      5951      5950      5952      5951      5950      5953
      5952      5950      5953      5950      5953      5954      5950      5953      5955
      5950      5953      5956      5954      5953      5955      5954      5953      5956
      5955      5953      5956      5953      5956      5957      5953      5956      5958
      5953      5956      5959      5957      5956      5958      5957      5956      5959
      5958      5956      5959      5956      5959      5960      5956      5959      5961
      5956      5959      5962      5960      5959      5961      5960      5959      5962
      5961      5959      5962      5959      5962      5963      5959      5962      5964
      5959      5962      5965      5963      5962      5964      5963      5962      5965
      5964      5962      5965      5962      5965      5966      5962      5965      5967
      5962      5965      5968      5966      5965      5967      5966      5965      5968
      5967      5965      5968      5965      5968      5969      5965      5968      5970
      5965      5968      5971      5969      5968      5970      5969      5968      5971
      5970      5968      5971      5968      5971      5972      5968      5971      5973
      5968      5971      5974      5972      5971      5973      5972      5971      5974
      5973      5971      5974      5971      5974      5975      5971      5974      5976
      5971      5974      5977      5975      5974      5976      5975      5974      5977
      5976      5974      5977      5974      5977      5978      5974      5977      5979
      5974      5977      5980      5978      5977      5979      5978      5977      5980
      5979      5977      5980      5982      5981      5986      5982      5981      5990
      5982      5981      5994      5986      5981      5990      5986      5981      5994
      5990      5981      5994      5981      5982      5983      5981      5982      5984
      5981      5982      5985      5983      5982      5984      5983      5982      5985
      5984      5982      5985      5981      5986      5987      5981      5986      5988
      5981      5986      5989      5987      5986      5988      5987      5986      5989
      5988      5986      5989      5981      5990      5991      5981      5990      5992
      5981      5990      5993      5991      5990      5992      5991      5990      5993
      5992      5990      5993      5981      5994      5995      5981      5994      5996
      5981      5994      5997      5995      5994      5996      5995      5994      5997
      5996      5994      5997      5994      5997      5998      5994      5997      5999
      5994      5997      6004      5998      5997      5999      5998      5997      6004
      5999      5997      6004      6001      6000      6002      6001      6000      6003
      6001      6000      6004      6002      6000      6003      6002      6000      6004
      6003      6000      6004      6000      6003      6005      5997      6004      6000
      6003      6005      6006      6003      6005      6007      6003      6005      6008
      6006      6005      6007      6006      6005      6008      6007      6005      6008
      6005      6008      6009      6005      6008      6010      6005      6008      6016
      6009      6008      6010      6009      6008      6016      6010      6008      6016
      6008      6010      6011      6010      6011      6012      6010      6011      6013
      6012      6011      6013      6011      6013      6014      6011      6013      6015
      6011      6013      6025      6014      6013      6015      6014      6013      6025
      6015      6013      6025      6008      6016      6017      6008      6016      6018
      6008      6016      6019      6017      6016      6018      6017      6016      6019
      6018      6016      6019      6016      6019      6020      6019      6020      6021
      6019      6020      6022      6021      6020      6022      6020      6022      6023
      6020      6022      6024      6020      6022      6068      6023      6022      6024
      6023      6022      6068      6024      6022      6068      6013      6025      6026
      6013      6025      6027      6013      6025      6028      6026      6025      6027
      6026      6025      6028      6027      6025      6028      6025      6028      6029
      6025      6028      6030      6025      6028      6031      6029      6028      6030
      6029      6028      6031      6030      6028      6031      6028      6031      6032
      6028      6031      6033      6028      6031      6034      6032      6031      6033
      6032      6031      6034      6033      6031      6034      6031      6034      6035
      6031      6034      6036      6031      6034      6037      6035      6034      6036
      6035      6034      6037      6036      6034      6037      6034      6037      6038
      6034      6037      6039      6034      6037      6040      6038      6037      6039
      6038      6037      6040      6039      6037      6040      6037      6040      6041
      6037      6040      6042      6037      6040      6043      6041      6040      6042
      6041      6040      6043      6042      6040      6043      6040      6043      6044
      6040      6043      6045      6040      6043      6046      6044      6043      6045
      6044      6043      6046      6045      6043      6046      6043      6046      6047
      6043      6046      6048      6043      6046      6049      6047      6046      6048
      6047      6046      6049      6048      6046      6049      6046      6049      6050
      6046      6049      6051      6046      6049      6052      6050      6049      6051
      6050      6049      6052      6051      6049      6052      6049      6052      6053
      6049      6052      6054      6049      6052      6055      6053      6052      6054
      6053      6052      6055      6054      6052      6055      6052      6055      6056
      6052      6055      6057      6052      6055      6058      6056      6055      6057
      6056      6055      6058      6057      6055      6058      6055      6058      6059
      6055      6058      6060      6055      6058      6061      6059      6058      6060
      6059      6058      6061      6060      6058      6061      6058      6061      6062
      6058      6061      6063      6058      6061      6064      6062      6061      6063
      6062      6061      6064      6063      6061      6064      6061      6064      6065
      6061      6064      6066      6061      6064      6067      6065      6064      6066
      6065      6064      6067      6066      6064      6067      6022      6068      6069
      6022      6068      6070      6022      6068      6071      6069      6068      6070
      6069      6068      6071      6070      6068      6071      6068      6071      6072
      6068      6071      6073      6068      6071      6074      6072      6071      6073
      6072      6071      6074      6073      6071      6074      6071      6074      6075
      6071      6074      6076      6071      6074      6077      6075      6074      6076
      6075      6074      6077      6076      6074      6077      6074      6077      6078
      6074      6077      6079      6074      6077      6080      6078      6077      6079
      6078      6077      6080      6079      6077      6080      6077      6080      6081
      6077      6080      6082      6077      6080      6083      6081      6080      6082
      6081      6080      6083      6082      6080      6083      6080      6083      6084
      6080      6083      6085      6080      6083      6086      6084      6083      6085
      6084      6083      6086      6085      6083      6086      6083      6086      6087
      6083      6086      6088      6083      6086      6089      6087      6086      6088
      6087      6086      6089      6088      6086      6089      6086      6089      6090
      6086      6089      6091      6086      6089      6092      6090      6089      6091
      6090      6089      6092      6091      6089      6092      6089      6092      6093
      6089      6092      6094      6089      6092      6095      6093      6092      6094
      6093      6092      6095      6094      6092      6095      6092      6095      6096
      6092      6095      6097      6092      6095      6098      6096      6095      6097
      6096      6095      6098      6097      6095      6098      6095      6098      6099
      6095      6098      6100      6095      6098      6101      6099      6098      6100
      6099      6098      6101      6100      6098      6101      6098      6101      6102
      6098      6101      6103      6098      6101      6104      6102      6101      6103
      6102      6101      6104      6103      6101      6104      6101      6104      6105
      6101      6104      6106      6101      6104      6107      6105      6104      6106
      6105      6104      6107      6106      6104      6107      6104      6107      6108
      6104      6107      6109      6104      6107      6110      6108      6107      6109
      6108      6107      6110      6109      6107      6110      6112      6111      6116
      6112      6111      6120      6112      6111      6124      6116      6111      6120
      6116      6111      6124      6120      6111      6124      6111      6112      6113
      6111      6112      6114      6111      6112      6115      6113      6112      6114
      6113      6112      6115      6114      6112      6115      6111      6116      6117
      6111      6116      6118      6111      6116      6119      6117      6116      6118
      6117      6116      6119      6118      6116      6119      6111      6120      6121
      6111      6120      6122      6111      6120      6123      6121      6120      6122
      6121      6120      6123      6122      6120      6123      6111      6124      6125
      6111      6124      6126      6111      6124      6127      6125      6124      6126
      6125      6124      6127      6126      6124      6127      6124      6127      6128
      6124      6127      6129      6124      6127      6134      6128      6127      6129
      6128      6127      6134      6129      6127      6134      6131      6130      6132
      6131      6130      6133      6131      6130      6134      6132      6130      6133
      6132      6130      6134      6133      6130      6134      6130      6133      6135
      6127      6134      6130      6133      6135      6136      6133      6135      6137
      6133      6135      6138      6136      6135      6137      6136      6135      6138
      6137      6135      6138      6135      6138      6139      6135      6138      6140
      6135      6138      6146      6139      6138      6140      6139      6138      6146
      6140      6138      6146      6138      6140      6141      6140      6141      6142
      6140      6141      6143      6142      6141      6143      6141      6143      6144
      6141      6143      6145      6141      6143      6155      6144      6143      6145
      6144      6143      6155      6145      6143      6155      6138      6146      6147
      6138      6146      6148      6138      6146      6149      6147      6146      6148
      6147      6146      6149      6148      6146      6149      6146      6149      6150
      6149      6150      6151      6149      6150      6152      6151      6150      6152
      6150      6152      6153      6150      6152      6154      6150      6152      6198
      6153      6152      6154      6153      6152      6198      6154      6152      6198
      6143      6155      6156      6143      6155      6157      6143      6155      6158
      6156      6155      6157      6156      6155      6158      6157      6155      6158
      6155      6158      6159      6155      6158      6160      6155      6158      6161
      6159      6158      6160      6159      6158      6161      6160      6158      6161
      6158      6161      6162      6158      6161      6163      6158      6161      6164
      6162      6161      6163      6162      6161      6164      6163      6161      6164
      6161      6164      6165      6161      6164      6166      6161      6164      6167
      6165      6164      6166      6165      6164      6167      6166      6164      6167
      6164      6167      6168      6164      6167      6169      6164      6167      6170
      6168      6167      6169      6168      6167      6170      6169      6167      6170
      6167      6170      6171      6167      6170      6172      6167      6170      6173
      6171      6170      6172      6171      6170      6173      6172      6170      6173
      6170      6173      6174      6170      6173      6175      6170      6173      6176
      6174      6173      6175      6174      6173      6176      6175      6173      6176
      6173      6176      6177      6173      6176      6178      6173      6176      6179
      6177      6176      6178      6177      6176      6179      6178      6176      6179
      6176      6179      6180      6176      6179      6181      6176      6179      6182
      6180      6179      6181      6180      6179      6182      6181      6179      6182
      6179      6182      6183      6179      6182      6184      6179      6182      6185
      6183      6182      6184      6183      6182      6185      6184      6182      6185
      6182      6185      6186      6182      6185      6187      6182      6185      6188
      6186      6185      6187      6186      6185      6188      6187      6185      6188
      6185      6188      6189      6185      6188      6190      6185      6188      6191
      6189      6188      6190      6189      6188      6191      6190      6188      6191
      6188      6191      6192      6188      6191      6193      6188      6191      6194
      6192      6191      6193      6192      6191      6194      6193      6191      6194
      6191      6194      6195      6191      6194      6196      6191      6194      6197
      6195      6194      6196      6195      6194      6197      6196      6194      6197
      6152      6198      6199      6152      6198      6200      6152      6198      6201
      6199      6198      6200      6199      6198      6201      6200      6198      6201
      6198      6201      6202      6198      6201      6203      6198      6201      6204
      6202      6201      6203      6202      6201      6204      6203      6201      6204
      6201      6204      6205      6201      6204      6206      6201      6204      6207
      6205      6204      6206      6205      6204      6207      6206      6204      6207
      6204      6207      6208      6204      6207      6209      6204      6207      6210
      6208      6207      6209      6208      6207      6210      6209      6207      6210
      6207      6210      6211      6207      6210      6212      6207      6210      6213
      6211      6210      6212      6211      6210      6213      6212      6210      6213
      6210      6213      6214      6210      6213      6215      6210      6213      6216
      6214      6213      6215      6214      6213      6216      6215      6213      6216
      6213      6216      6217      6213      6216      6218      6213      6216      6219
      6217      6216      6218      6217      6216      6219      6218      6216      6219
      6216      6219      6220      6216      6219      6221      6216      6219      6222
      6220      6219      6221      6220      6219      6222      6221      6219      6222
      6219      6222      6223      6219      6222      6224      6219      6222      6225
      6223      6222      6224      6223      6222      6225      6224      6222      6225
      6222      6225      6226      6222      6225      6227      6222      6225      6228
      6226      6225      6227      6226      6225      6228      6227      6225      6228
      6225      6228      6229      6225      6228      6230      6225      6228      6231
      6229      6228      6230      6229      6228      6231      6230      6228      6231
      6228      6231      6232      6228      6231      6233      6228      6231      6234
      6232      6231      6233      6232      6231      6234      6233      6231      6234
      6231      6234      6235      6231      6234      6236      6231      6234      6237
      6235      6234      6236      6235      6234      6237      6236      6234      6237
      6234      6237      6238      6234      6237      6239      6234      6237      6240
      6238      6237      6239      6238      6237      6240      6239      6237      6240
      6242      6241      6246      6242      6241      6250      6242      6241      6254
      6246      6241      6250      6246      6241      6254      6250      6241      6254
      6241      6242      6243      6241      6242      6244      6241      6242      6245
      6243      6242      6244      6243      6242      6245      6244      6242      6245
      6241      6246      6247      6241      6246      6248      6241      6246      6249
      6247      6246      6248      6247      6246      6249      6248      6246      6249
      6241      6250      6251      6241      6250      6252      6241      6250      6253
      6251      6250      6252      6251      6250      6253      6252      6250      6253
      6241      6254      6255      6241      6254      6256      6241      6254      6257
      6255      6254      6256      6255      6254      6257      6256      6254      6257
      6254      6257      6258      6254      6257      6259      6254      6257      6264
      6258      6257      6259      6258      6257      6264      6259      6257      6264
      6261      6260      6262      6261      6260      6263      6261      6260      6264
      6262      6260      6263      6262      6260      6264      6263      6260      6264
      6260      6263      6265      6257      6264      6260      6263      6265      6266
      6263      6265      6267      6263      6265      6268      6266      6265      6267
      6266      6265      6268      6267      6265      6268      6265      6268      6269
      6265      6268      6270      6265      6268      6276      6269      6268      6270
      6269      6268      6276      6270      6268      6276      6268      6270      6271
      6270      6271      6272      6270      6271      6273      6272      6271      6273
      6271      6273      6274      6271      6273      6275      6271      6273      6285
      6274      6273      6275      6274      6273      6285      6275      6273      6285
      6268      6276      6277      6268      6276      6278      6268      6276      6279
      6277      6276      6278      6277      6276      6279      6278      6276      6279
      6276      6279      6280      6279      6280      6281      6279      6280      6282
      6281      6280      6282      6280      6282      6283      6280      6282      6284
      6280      6282      6328      6283      6282      6284      6283      6282      6328
      6284      6282      6328      6273      6285      6286      6273      6285      6287
      6273      6285      6288      6286      6285      6287      6286      6285      6288
      6287      6285      6288      6285      6288      6289      6285      6288      6290
      6285      6288      6291      6289      6288      6290      6289      6288      6291
      6290      6288      6291      6288      6291      6292      6288      6291      6293
      6288      6291      6294      6292      6291      6293      6292      6291      6294
      6293      6291      6294      6291      6294      6295      6291      6294      6296
      6291      6294      6297      6295      6294      6296      6295      6294      6297
      6296      6294      6297      6294      6297      6298      6294      6297      6299
      6294      6297      6300      6298      6297      6299      6298      6297      6300
      6299      6297      6300      6297      6300      6301      6297      6300      6302
      6297      6300      6303      6301      6300      6302      6301      6300      6303
      6302      6300      6303      6300      6303      6304      6300      6303      6305
      6300      6303      6306      6304      6303      6305      6304      6303      6306
      6305      6303      6306      6303      6306      6307      6303      6306      6308
      6303      6306      6309      6307      6306      6308      6307      6306      6309
      6308      6306      6309      6306      6309      6310      6306      6309      6311
      6306      6309      6312      6310      6309      6311      6310      6309      6312
      6311      6309      6312      6309      6312      6313      6309      6312      6314
      6309      6312      6315      6313      6312      6314      6313      6312      6315
      6314      6312      6315      6312      6315      6316      6312      6315      6317
      6312      6315      6318      6316      6315      6317      6316      6315      6318
      6317      6315      6318      6315      6318      6319      6315      6318      6320
      6315      6318      6321      6319      6318      6320      6319      6318      6321
      6320      6318      6321      6318      6321      6322      6318      6321      6323
      6318      6321      6324      6322      6321      6323      6322      6321      6324
      6323      6321      6324      6321      6324      6325      6321      6324      6326
      6321      6324      6327      6325      6324      6326      6325      6324      6327
      6326      6324      6327      6282      6328      6329      6282      6328      6330
      6282      6328      6331      6329      6328      6330      6329      6328      6331
      6330      6328      6331      6328      6331      6332      6328      6331      6333
      6328      6331      6334      6332      6331      6333      6332      6331      6334
      6333      6331      6334      6331      6334      6335      6331      6334      6336
      6331      6334      6337      6335      6334      6336      6335      6334      6337
      6336      6334      6337      6334      6337      6338      6334      6337      6339
      6334      6337      6340      6338      6337      6339      6338      6337      6340
      6339      6337      6340      6337      6340      6341      6337      6340      6342
      6337      6340      6343      6341      6340      6342      6341      6340      6343
      6342      6340      6343      6340      6343      6344      6340      6343      6345
      6340      6343      6346      6344      6343      6345      6344      6343      6346
      6345      6343      6346      6343      6346      6347      6343      6346      6348
      6343      6346      6349      6347      6346      6348      6347      6346      6349
      6348      6346      6349      6346      6349      6350      6346      6349      6351
      6346      6349      6352      6350      6349      6351      6350      6349      6352
      6351      6349      6352      6349      6352      6353      6349      6352      6354
      6349      6352      6355      6353      6352      6354      6353      6352      6355
      6354      6352      6355      6352      6355      6356      6352      6355      6357
      6352      6355      6358      6356      6355      6357      6356      6355      6358
      6357      6355      6358      6355      6358      6359      6355      6358      6360
      6355      6358      6361      6359      6358      6360      6359      6358      6361
      6360      6358      6361      6358      6361      6362      6358      6361      6363
      6358      6361      6364      6362      6361      6363      6362      6361      6364
      6363      6361      6364      6361      6364      6365      6361      6364      6366
      6361      6364      6367      6365      6364      6366      6365      6364      6367
      6366      6364      6367      6364      6367      6368      6364      6367      6369
      6364      6367      6370      6368      6367      6369      6368      6367      6370
      6369      6367      6370      6372      6371      6376      6372      6371      6380
      6372      6371      6384      6376      6371      6380      6376      6371      6384
      6380      6371      6384      6371      6372      6373      6371      6372      6374
      6371      6372      6375      6373      6372      6374      6373      6372      6375
      6374      6372      6375      6371      6376      6377      6371      6376      6378
      6371      6376      6379      6377      6376      6378      6377      6376      6379
      6378      6376      6379      6371      6380      6381      6371      6380      6382
      6371      6380      6383      6381      6380      6382      6381      6380      6383
      6382      6380      6383      6371      6384      6385      6371      6384      6386
      6371      6384      6387      6385      6384      6386      6385      6384      6387
      6386      6384      6387      6384      6387      6388      6384      6387      6389
      6384      6387      6394      6388      6387      6389      6388      6387      6394
      6389      6387      6394      6391      6390      6392      6391      6390      6393
      6391      6390      6394      6392      6390      6393      6392      6390      6394
      6393      6390      6394      6390      6393      6395      6387      6394      6390
      6393      6395      6396      6393      6395      6397      6393      6395      6398
      6396      6395      6397      6396      6395      6398      6397      6395      6398
      6395      6398      6399      6395      6398      6400      6395      6398      6406
      6399      6398      6400      6399      6398      6406      6400      6398      6406
      6398      6400      6401      6400      6401      6402      6400      6401      6403
      6402      6401      6403      6401      6403      6404      6401      6403      6405
      6401      6403      6415      6404      6403      6405      6404      6403      6415
      6405      6403      6415      6398      6406      6407      6398      6406      6408
      6398      6406      6409      6407      6406      6408      6407      6406      6409
      6408      6406      6409      6406      6409      6410      6409      6410      6411
      6409      6410      6412      6411      6410      6412      6410      6412      6413
      6410      6412      6414      6410      6412      6458      6413      6412      6414
      6413      6412      6458      6414      6412      6458      6403      6415      6416
      6403      6415      6417      6403      6415      6418      6416      6415      6417
      6416      6415      6418      6417      6415      6418      6415      6418      6419
      6415      6418      6420      6415      6418      6421      6419      6418      6420
      6419      6418      6421      6420      6418      6421      6418      6421      6422
      6418      6421      6423      6418      6421      6424      6422      6421      6423
      6422      6421      6424      6423      6421      6424      6421      6424      6425
      6421      6424      6426      6421      6424      6427      6425      6424      6426
      6425      6424      6427      6426      6424      6427      6424      6427      6428
      6424      6427      6429      6424      6427      6430      6428      6427      6429
      6428      6427      6430      6429      6427      6430      6427      6430      6431
      6427      6430      6432      6427      6430      6433      6431      6430      6432
      6431      6430      6433      6432      6430      6433      6430      6433      6434
      6430      6433      6435      6430      6433      6436      6434      6433      6435
      6434      6433      6436      6435      6433      6436      6433      6436      6437
      6433      6436      6438      6433      6436      6439      6437      6436      6438
      6437      6436      6439      6438      6436      6439      6436      6439      6440
      6436      6439      6441      6436      6439      6442      6440      6439      6441
      6440      6439      6442      6441      6439      6442      6439      6442      6443
      6439      6442      6444      6439      6442      6445      6443      6442      6444
      6443      6442      6445      6444      6442      6445      6442      6445      6446
      6442      6445      6447      6442      6445      6448      6446      6445      6447
      6446      6445      6448      6447      6445      6448      6445      6448      6449
      6445      6448      6450      6445      6448      6451      6449      6448      6450
      6449      6448      6451      6450      6448      6451      6448      6451      6452
      6448      6451      6453      6448      6451      6454      6452      6451      6453
      6452      6451      6454      6453      6451      6454      6451      6454      6455
      6451      6454      6456      6451      6454      6457      6455      6454      6456
      6455      6454      6457      6456      6454      6457      6412      6458      6459
      6412      6458      6460      6412      6458      6461      6459      6458      6460
      6459      6458      6461      6460      6458      6461      6458      6461      6462
      6458      6461      6463      6458      6461      6464      6462      6461      6463
      6462      6461      6464      6463      6461      6464      6461      6464      6465
      6461      6464      6466      6461      6464      6467      6465      6464      6466
      6465      6464      6467      6466      6464      6467      6464      6467      6468
      6464      6467      6469      6464      6467      6470      6468      6467      6469
      6468      6467      6470      6469      6467      6470      6467      6470      6471
      6467      6470      6472      6467      6470      6473      6471      6470      6472
      6471      6470      6473      6472      6470      6473      6470      6473      6474
      6470      6473      6475      6470      6473      6476      6474      6473      6475
      6474      6473      6476      6475      6473      6476      6473      6476      6477
      6473      6476      6478      6473      6476      6479      6477      6476      6478
      6477      6476      6479      6478      6476      6479      6476      6479      6480
      6476      6479      6481      6476      6479      6482      6480      6479      6481
      6480      6479      6482      6481      6479      6482      6479      6482      6483
      6479      6482      6484      6479      6482      6485      6483      6482      6484
      6483      6482      6485      6484      6482      6485      6482      6485      6486
      6482      6485      6487      6482      6485      6488      6486      6485      6487
      6486      6485      6488      6487      6485      6488      6485      6488      6489
      6485      6488      6490      6485      6488      6491      6489      6488      6490
      6489      6488      6491      6490      6488      6491      6488      6491      6492
      6488      6491      6493      6488      6491      6494      6492      6491      6493
      6492      6491      6494      6493      6491      6494      6491      6494      6495
      6491      6494      6496      6491      6494      6497      6495      6494      6496
      6495      6494      6497      6496      6494      6497      6494      6497      6498
      6494      6497      6499      6494      6497      6500      6498      6497      6499
      6498      6497      6500      6499      6497      6500      6502      6501      6506
      6502      6501      6510      6502      6501      6514      6506      6501      6510
      6506      6501      6514      6510      6501      6514      6501      6502      6503
      6501      6502      6504      6501      6502      6505      6503      6502      6504
      6503      6502      6505      6504      6502      6505      6501      6506      6507
      6501      6506      6508      6501      6506      6509      6507      6506      6508
      6507      6506      6509      6508      6506      6509      6501      6510      6511
      6501      6510      6512      6501      6510      6513      6511      6510      6512
      6511      6510      6513      6512      6510      6513      6501      6514      6515
      6501      6514      6516      6501      6514      6517      6515      6514      6516
      6515      6514      6517      6516      6514      6517      6514      6517      6518
      6514      6517      6519      6514      6517      6524      6518      6517      6519
      6518      6517      6524      6519      6517      6524      6521      6520      6522
      6521      6520      6523      6521      6520      6524      6522      6520      6523
      6522      6520      6524      6523      6520      6524      6520      6523      6525
      6517      6524      6520      6523      6525      6526      6523      6525      6527
      6523      6525      6528      6526      6525      6527      6526      6525      6528
      6527      6525      6528      6525      6528      6529      6525      6528      6530
      6525      6528      6536      6529      6528      6530      6529      6528      6536
      6530      6528      6536      6528      6530      6531      6530      6531      6532
      6530      6531      6533      6532      6531      6533      6531      6533      6534
      6531      6533      6535      6531      6533      6545      6534      6533      6535
      6534      6533      6545      6535      6533      6545      6528      6536      6537
      6528      6536      6538      6528      6536      6539      6537      6536      6538
      6537      6536      6539      6538      6536      6539      6536      6539      6540
      6539      6540      6541      6539      6540      6542      6541      6540      6542
      6540      6542      6543      6540      6542      6544      6540      6542      6588
      6543      6542      6544      6543      6542      6588      6544      6542      6588
      6533      6545      6546      6533      6545      6547      6533      6545      6548
      6546      6545      6547      6546      6545      6548      6547      6545      6548
      6545      6548      6549      6545      6548      6550      6545      6548      6551
      6549      6548      6550      6549      6548      6551      6550      6548      6551
      6548      6551      6552      6548      6551      6553      6548      6551      6554
      6552      6551      6553      6552      6551      6554      6553      6551      6554
      6551      6554      6555      6551      6554      6556      6551      6554      6557
      6555      6554      6556      6555      6554      6557      6556      6554      6557
      6554      6557      6558      6554      6557      6559      6554      6557      6560
      6558      6557      6559      6558      6557      6560      6559      6557      6560
      6557      6560      6561      6557      6560      6562      6557      6560      6563
      6561      6560      6562      6561      6560      6563      6562      6560      6563
      6560      6563      6564      6560      6563      6565      6560      6563      6566
      6564      6563      6565      6564      6563      6566      6565      6563      6566
      6563      6566      6567      6563      6566      6568      6563      6566      6569
      6567      6566      6568      6567      6566      6569      6568      6566      6569
      6566      6569      6570      6566      6569      6571      6566      6569      6572
      6570      6569      6571      6570      6569      6572      6571      6569      6572
      6569      6572      6573      6569      6572      6574      6569      6572      6575
      6573      6572      6574      6573      6572      6575      6574      6572      6575
      6572      6575      6576      6572      6575      6577      6572      6575      6578
      6576      6575      6577      6576      6575      6578      6577      6575      6578
      6575      6578      6579      6575      6578      6580      6575      6578      6581
      6579      6578      6580      6579      6578      6581      6580      6578      6581
      6578      6581      6582      6578      6581      6583      6578      6581      6584
      6582      6581      6583      6582      6581      6584      6583      6581      6584
      6581      6584      6585      6581      6584      6586      6581      6584      6587
      6585      6584      6586      6585      6584      6587      6586      6584      6587
      6542      6588      6589      6542      6588      6590      6542      6588      6591
      6589      6588      6590      6589      6588      6591      6590      6588      6591
      6588      6591      6592      6588      6591      6593      6588      6591      6594
      6592      6591      6593      6592      6591      6594      6593      6591      6594
      6591      6594      6595      6591      6594      6596      6591      6594      6597
      6595      6594      6596      6595      6594      6597      6596      6594      6597
      6594      6597      6598      6594      6597      6599      6594      6597      6600
      6598      6597      6599      6598      6597      6600      6599      6597      6600
      6597      6600      6601      6597      6600      6602      6597      6600      6603
      6601      6600      6602      6601      6600      6603      6602      6600      6603
      6600      6603      6604      6600      6603      6605      6600      6603      6606
      6604      6603      6605      6604      6603      6606      6605      6603      6606
      6603      6606      6607      6603      6606      6608      6603      6606      6609
      6607      6606      6608      6607      6606      6609      6608      6606      6609
      6606      6609      6610      6606      6609      6611      6606      6609      6612
      6610      6609      6611      6610      6609      6612      6611      6609      6612
      6609      6612      6613      6609      6612      6614      6609      6612      6615
      6613      6612      6614      6613      6612      6615      6614      6612      6615
      6612      6615      6616      6612      6615      6617      6612      6615      6618
      6616      6615      6617      6616      6615      6618      6617      6615      6618
      6615      6618      6619      6615      6618      6620      6615      6618      6621
      6619      6618      6620      6619      6618      6621      6620      6618      6621
      6618      6621      6622      6618      6621      6623      6618      6621      6624
      6622      6621      6623      6622      6621      6624      6623      6621      6624
      6621      6624      6625      6621      6624      6626      6621      6624      6627
      6625      6624      6626      6625      6624      6627      6626      6624      6627
      6624      6627      6628      6624      6627      6629      6624      6627      6630
      6628      6627      6629      6628      6627      6630      6629      6627      6630
      6632      6631      6636      6632      6631      6640      6632      6631      6644
      6636      6631      6640      6636      6631      6644      6640      6631      6644
      6631      6632      6633      6631      6632      6634      6631      6632      6635
      6633      6632      6634      6633      6632      6635      6634      6632      6635
      6631      6636      6637      6631      6636      6638      6631      6636      6639
      6637      6636      6638      6637      6636      6639      6638      6636      6639
      6631      6640      6641      6631      6640      6642      6631      6640      6643
      6641      6640      6642      6641      6640      6643      6642      6640      6643
      6631      6644      6645      6631      6644      6646      6631      6644      6647
      6645      6644      6646      6645      6644      6647      6646      6644      6647
      6644      6647      6648      6644      6647      6649      6644      6647      6654
      6648      6647      6649      6648      6647      6654      6649      6647      6654
      6651      6650      6652      6651      6650      6653      6651      6650      6654
      6652      6650      6653      6652      6650      6654      6653      6650      6654
      6650      6653      6655      6647      6654      6650      6653      6655      6656
      6653      6655      6657      6653      6655      6658      6656      6655      6657
      6656      6655      6658      6657      6655      6658      6655      6658      6659
      6655      6658      6660      6655      6658      6666      6659      6658      6660
      6659      6658      6666      6660      6658      6666      6658      6660      6661
      6660      6661      6662      6660      6661      6663      6662      6661      6663
      6661      6663      6664      6661      6663      6665      6661      6663      6675
      6664      6663      6665      6664      6663      6675      6665      6663      6675
      6658      6666      6667      6658      6666      6668      6658      6666      6669
      6667      6666      6668      6667      6666      6669      6668      6666      6669
      6666      6669      6670      6669      6670      6671      6669      6670      6672
      6671      6670      6672      6670      6672      6673      6670      6672      6674
      6670      6672      6718      6673      6672      6674      6673      6672      6718
      6674      6672      6718      6663      6675      6676      6663      6675      6677
      6663      6675      6678      6676      6675      6677      6676      6675      6678
      6677      6675      6678      6675      6678      6679      6675      6678      6680
      6675      6678      6681      6679      6678      6680      6679      6678      6681
      6680      6678      6681      6678      6681      6682      6678      6681      6683
      6678      6681      6684      6682      6681      6683      6682      6681      6684
      6683      6681      6684      6681      6684      6685      6681      6684      6686
      6681      6684      6687      6685      6684      6686      6685      6684      6687
      6686      6684      6687      6684      6687      6688      6684      6687      6689
      6684      6687      6690      6688      6687      6689      6688      6687      6690
      6689      6687      6690      6687      6690      6691      6687      6690      6692
      6687      6690      6693      6691      6690      6692      6691      6690      6693
      6692      6690      6693      6690      6693      6694      6690      6693      6695
      6690      6693      6696      6694      6693      6695      6694      6693      6696
      6695      6693      6696      6693      6696      6697      6693      6696      6698
      6693      6696      6699      6697      6696      6698      6697      6696      6699
      6698      6696      6699      6696      6699      6700      6696      6699      6701
      6696      6699      6702      6700      6699      6701      6700      6699      6702
      6701      6699      6702      6699      6702      6703      6699      6702      6704
      6699      6702      6705      6703      6702      6704      6703      6702      6705
      6704      6702      6705      6702      6705      6706      6702      6705      6707
      6702      6705      6708      6706      6705      6707      6706      6705      6708
      6707      6705      6708      6705      6708      6709      6705      6708      6710
      6705      6708      6711      6709      6708      6710      6709      6708      6711
      6710      6708      6711      6708      6711      6712      6708      6711      6713
      6708      6711      6714      6712      6711      6713      6712      6711      6714
      6713      6711      6714      6711      6714      6715      6711      6714      6716
      6711      6714      6717      6715      6714      6716      6715      6714      6717
      6716      6714      6717      6672      6718      6719      6672      6718      6720
      6672      6718      6721      6719      6718      6720      6719      6718      6721
      6720      6718      6721      6718      6721      6722      6718      6721      6723
      6718      6721      6724      6722      6721      6723      6722      6721      6724
      6723      6721      6724      6721      6724      6725      6721      6724      6726
      6721      6724      6727      6725      6724      6726      6725      6724      6727
      6726      6724      6727      6724      6727      6728      6724      6727      6729
      6724      6727      6730      6728      6727      6729      6728      6727      6730
      6729      6727      6730      6727      6730      6731      6727      6730      6732
      6727      6730      6733      6731      6730      6732      6731      6730      6733
      6732      6730      6733      6730      6733      6734      6730      6733      6735
      6730      6733      6736      6734      6733      6735      6734      6733      6736
      6735      6733      6736      6733      6736      6737      6733      6736      6738
      6733      6736      6739      6737      6736      6738      6737      6736      6739
      6738      6736      6739      6736      6739      6740      6736      6739      6741
      6736      6739      6742      6740      6739      6741      6740      6739      6742
      6741      6739      6742      6739      6742      6743      6739      6742      6744
      6739      6742      6745      6743      6742      6744      6743      6742      6745
      6744      6742      6745      6742      6745      6746      6742      6745      6747
      6742      6745      6748      6746      6745      6747      6746      6745      6748
      6747      6745      6748      6745      6748      6749      6745      6748      6750
      6745      6748      6751      6749      6748      6750      6749      6748      6751
      6750      6748      6751      6748      6751      6752      6748      6751      6753
      6748      6751      6754      6752      6751      6753      6752      6751      6754
      6753      6751      6754      6751      6754      6755      6751      6754      6756
      6751      6754      6757      6755      6754      6756      6755      6754      6757
      6756      6754      6757      6754      6757      6758      6754      6757      6759
      6754      6757      6760      6758      6757      6759      6758      6757      6760
      6759      6757      6760      6762      6761      6766      6762      6761      6770
      6762      6761      6774      6766      6761      6770      6766      6761      6774
      6770      6761      6774      6761      6762      6763      6761      6762      6764
      6761      6762      6765      6763      6762      6764      6763      6762      6765
      6764      6762      6765      6761      6766      6767      6761      6766      6768
      6761      6766      6769      6767      6766      6768      6767      6766      6769
      6768      6766      6769      6761      6770      6771      6761      6770      6772
      6761      6770      6773      6771      6770      6772      6771      6770      6773
      6772      6770      6773      6761      6774      6775      6761      6774      6776
      6761      6774      6777      6775      6774      6776      6775      6774      6777
      6776      6774      6777      6774      6777      6778      6774      6777      6779
      6774      6777      6784      6778      6777      6779      6778      6777      6784
      6779      6777      6784      6781      6780      6782      6781      6780      6783
      6781      6780      6784      6782      6780      6783      6782      6780      6784
      6783      6780      6784      6780      6783      6785      6777      6784      6780
      6783      6785      6786      6783      6785      6787      6783      6785      6788
      6786      6785      6787      6786      6785      6788      6787      6785      6788
      6785      6788      6789      6785      6788      6790      6785      6788      6796
      6789      6788      6790      6789      6788      6796      6790      6788      6796
      6788      6790      6791      6790      6791      6792      6790      6791      6793
      6792      6791      6793      6791      6793      6794      6791      6793      6795
      6791      6793      6805      6794      6793      6795      6794      6793      6805
      6795      6793      6805      6788      6796      6797      6788      6796      6798
      6788      6796      6799      6797      6796      6798      6797      6796      6799
      6798      6796      6799      6796      6799      6800      6799      6800      6801
      6799      6800      6802      6801      6800      6802      6800      6802      6803
      6800      6802      6804      6800      6802      6848      6803      6802      6804
      6803      6802      6848      6804      6802      6848      6793      6805      6806
      6793      6805      6807      6793      6805      6808      6806      6805      6807
      6806      6805      6808      6807      6805      6808      6805      6808      6809
      6805      6808      6810      6805      6808      6811      6809      6808      6810
      6809      6808      6811      6810      6808      6811      6808      6811      6812
      6808      6811      6813      6808      6811      6814      6812      6811      6813
      6812      6811      6814      6813      6811      6814      6811      6814      6815
      6811      6814      6816      6811      6814      6817      6815      6814      6816
      6815      6814      6817      6816      6814      6817      6814      6817      6818
      6814      6817      6819      6814      6817      6820      6818      6817      6819
      6818      6817      6820      6819      6817      6820      6817      6820      6821
      6817      6820      6822      6817      6820      6823      6821      6820      6822
      6821      6820      6823      6822      6820      6823      6820      6823      6824
      6820      6823      6825      6820      6823      6826      6824      6823      6825
      6824      6823      6826      6825      6823      6826      6823      6826      6827
      6823      6826      6828      6823      6826      6829      6827      6826      6828
      6827      6826      6829      6828      6826      6829      6826      6829      6830
      6826      6829      6831      6826      6829      6832      6830      6829      6831
      6830      6829      6832      6831      6829      6832      6829      6832      6833
      6829      6832      6834      6829      6832      6835      6833      6832      6834
      6833      6832      6835      6834      6832      6835      6832      6835      6836
      6832      6835      6837      6832      6835      6838      6836      6835      6837
      6836      6835      6838      6837      6835      6838      6835      6838      6839
      6835      6838      6840      6835      6838      6841      6839      6838      6840
      6839      6838      6841      6840      6838      6841      6838      6841      6842
      6838      6841      6843      6838      6841      6844      6842      6841      6843
      6842      6841      6844      6843      6841      6844      6841      6844      6845
      6841      6844      6846      6841      6844      6847      6845      6844      6846
      6845      6844      6847      6846      6844      6847      6802      6848      6849
      6802      6848      6850      6802      6848      6851      6849      6848      6850
      6849      6848      6851      6850      6848      6851      6848      6851      6852
      6848      6851      6853      6848      6851      6854      6852      6851      6853
      6852      6851      6854      6853      6851      6854      6851      6854      6855
      6851      6854      6856      6851      6854      6857      6855      6854      6856
      6855      6854      6857      6856      6854      6857      6854      6857      6858
      6854      6857      6859      6854      6857      6860      6858      6857      6859
      6858      6857      6860      6859      6857      6860      6857      6860      6861
      6857      6860      6862      6857      6860      6863      6861      6860      6862
      6861      6860      6863      6862      6860      6863      6860      6863      6864
      6860      6863      6865      6860      6863      6866      6864      6863      6865
      6864      6863      6866      6865      6863      6866      6863      6866      6867
      6863      6866      6868      6863      6866      6869      6867      6866      6868
      6867      6866      6869      6868      6866      6869      6866      6869      6870
      6866      6869      6871      6866      6869      6872      6870      6869      6871
      6870      6869      6872      6871      6869      6872      6869      6872      6873
      6869      6872      6874      6869      6872      6875      6873      6872      6874
      6873      6872      6875      6874      6872      6875      6872      6875      6876
      6872      6875      6877      6872      6875      6878      6876      6875      6877
      6876      6875      6878      6877      6875      6878      6875      6878      6879
      6875      6878      6880      6875      6878      6881      6879      6878      6880
      6879      6878      6881      6880      6878      6881      6878      6881      6882
      6878      6881      6883      6878      6881      6884      6882      6881      6883
      6882      6881      6884      6883      6881      6884      6881      6884      6885
      6881      6884      6886      6881      6884      6887      6885      6884      6886
      6885      6884      6887      6886      6884      6887      6884      6887      6888
      6884      6887      6889      6884      6887      6890      6888      6887      6889
      6888      6887      6890      6889      6887      6890      6892      6891      6896
      6892      6891      6900      6892      6891      6904      6896      6891      6900
      6896      6891      6904      6900      6891      6904      6891      6892      6893
      6891      6892      6894      6891      6892      6895      6893      6892      6894
      6893      6892      6895      6894      6892      6895      6891      6896      6897
      6891      6896      6898      6891      6896      6899      6897      6896      6898
      6897      6896      6899      6898      6896      6899      6891      6900      6901
      6891      6900      6902      6891      6900      6903      6901      6900      6902
      6901      6900      6903      6902      6900      6903      6891      6904      6905
      6891      6904      6906      6891      6904      6907      6905      6904      6906
      6905      6904      6907      6906      6904      6907      6904      6907      6908
      6904      6907      6909      6904      6907      6914      6908      6907      6909
      6908      6907      6914      6909      6907      6914      6911      6910      6912
      6911      6910      6913      6911      6910      6914      6912      6910      6913
      6912      6910      6914      6913      6910      6914      6910      6913      6915
      6907      6914      6910      6913      6915      6916      6913      6915      6917
      6913      6915      6918      6916      6915      6917      6916      6915      6918
      6917      6915      6918      6915      6918      6919      6915      6918      6920
      6915      6918      6926      6919      6918      6920      6919      6918      6926
      6920      6918      6926      6918      6920      6921      6920      6921      6922
      6920      6921      6923      6922      6921      6923      6921      6923      6924
      6921      6923      6925      6921      6923      6935      6924      6923      6925
      6924      6923      6935      6925      6923      6935      6918      6926      6927
      6918      6926      6928      6918      6926      6929      6927      6926      6928
      6927      6926      6929      6928      6926      6929      6926      6929      6930
      6929      6930      6931      6929      6930      6932      6931      6930      6932
      6930      6932      6933      6930      6932      6934      6930      6932      6978
      6933      6932      6934      6933      6932      6978      6934      6932      6978
      6923      6935      6936      6923      6935      6937      6923      6935      6938
      6936      6935      6937      6936      6935      6938      6937      6935      6938
      6935      6938      6939      6935      6938      6940      6935      6938      6941
      6939      6938      6940      6939      6938      6941      6940      6938      6941
      6938      6941      6942      6938      6941      6943      6938      6941      6944
      6942      6941      6943      6942      6941      6944      6943      6941      6944
      6941      6944      6945      6941      6944      6946      6941      6944      6947
      6945      6944      6946      6945      6944      6947      6946      6944      6947
      6944      6947      6948      6944      6947      6949      6944      6947      6950
      6948      6947      6949      6948      6947      6950      6949      6947      6950
      6947      6950      6951      6947      6950      6952      6947      6950      6953
      6951      6950      6952      6951      6950      6953      6952      6950      6953
      6950      6953      6954      6950      6953      6955      6950      6953      6956
      6954      6953      6955      6954      6953      6956      6955      6953      6956
      6953      6956      6957      6953      6956      6958      6953      6956      6959
      6957      6956      6958      6957      6956      6959      6958      6956      6959
      6956      6959      6960      6956      6959      6961      6956      6959      6962
      6960      6959      6961      6960      6959      6962      6961      6959      6962
      6959      6962      6963      6959      6962      6964      6959      6962      6965
      6963      6962      6964      6963      6962      6965      6964      6962      6965
      6962      6965      6966      6962      6965      6967      6962      6965      6968
      6966      6965      6967      6966      6965      6968      6967      6965      6968
      6965      6968      6969      6965      6968      6970      6965      6968      6971
      6969      6968      6970      6969      6968      6971      6970      6968      6971
      6968      6971      6972      6968      6971      6973      6968      6971      6974
      6972      6971      6973      6972      6971      6974      6973      6971      6974
      6971      6974      6975      6971      6974      6976      6971      6974      6977
      6975      6974      6976      6975      6974      6977      6976      6974      6977
      6932      6978      6979      6932      6978      6980      6932      6978      6981
      6979      6978      6980      6979      6978      6981      6980      6978      6981
      6978      6981      6982      6978      6981      6983      6978      6981      6984
      6982      6981      6983      6982      6981      6984      6983      6981      6984
      6981      6984      6985      6981      6984      6986      6981      6984      6987
      6985      6984      6986      6985      6984      6987      6986      6984      6987
      6984      6987      6988      6984      6987      6989      6984      6987      6990
      6988      6987      6989      6988      6987      6990      6989      6987      6990
      6987      6990      6991      6987      6990      6992      6987      6990      6993
      6991      6990      6992      6991      6990      6993      6992      6990      6993
      6990      6993      6994      6990      6993      6995      6990      6993      6996
      6994      6993      6995      6994      6993      6996      6995      6993      6996
      6993      6996      6997      6993      6996      6998      6993      6996      6999
      6997      6996      6998      6997      6996      6999      6998      6996      6999
      6996      6999      7000      6996      6999      7001      6996      6999      7002
      7000      6999      7001      7000      6999      7002      7001      6999      7002
      6999      7002      7003      6999      7002      7004      6999      7002      7005
      7003      7002      7004      7003      7002      7005      7004      7002      7005
      7002      7005      7006      7002      7005      7007      7002      7005      7008
      7006      7005      7007      7006      7005      7008      7007      7005      7008
      7005      7008      7009      7005      7008      7010      7005      7008      7011
      7009      7008      7010      7009      7008      7011      7010      7008      7011
      7008      7011      7012      7008      7011      7013      7008      7011      7014
      7012      7011      7013      7012      7011      7014      7013      7011      7014
      7011      7014      7015      7011      7014      7016      7011      7014      7017
      7015      7014      7016      7015      7014      7017      7016      7014      7017
      7014      7017      7018      7014      7017      7019      7014      7017      7020
      7018      7017      7019      7018      7017      7020      7019      7017      7020
      7022      7021      7026      7022      7021      7030      7022      7021      7034
      7026      7021      7030      7026      7021      7034      7030      7021      7034
      7021      7022      7023      7021      7022      7024      7021      7022      7025
      7023      7022      7024      7023      7022      7025      7024      7022      7025
      7021      7026      7027      7021      7026      7028      7021      7026      7029
      7027      7026      7028      7027      7026      7029      7028      7026      7029
      7021      7030      7031      7021      7030      7032      7021      7030      7033
      7031      7030      7032      7031      7030      7033      7032      7030      7033
      7021      7034      7035      7021      7034      7036      7021      7034      7037
      7035      7034      7036      7035      7034      7037      7036      7034      7037
      7034      7037      7038      7034      7037      7039      7034      7037      7044
      7038      7037      7039      7038      7037      7044      7039      7037      7044
      7041      7040      7042      7041      7040      7043      7041      7040      7044
      7042      7040      7043      7042      7040      7044      7043      7040      7044
      7040      7043      7045      7037      7044      7040      7043      7045      7046
      7043      7045      7047      7043      7045      7048      7046      7045      7047
      7046      7045      7048      7047      7045      7048      7045      7048      7049
      7045      7048      7050      7045      7048      7056      7049      7048      7050
      7049      7048      7056      7050      7048      7056      7048      7050      7051
      7050      7051      7052      7050      7051      7053      7052      7051      7053
      7051      7053      7054      7051      7053      7055      7051      7053      7065
      7054      7053      7055      7054      7053      7065      7055      7053      7065
      7048      7056      7057      7048      7056      7058      7048      7056      7059
      7057      7056      7058      7057      7056      7059      7058      7056      7059
      7056      7059      7060      7059      7060      7061      7059      7060      7062
      7061      7060      7062      7060      7062      7063      7060      7062      7064
      7060      7062      7108      7063      7062      7064      7063      7062      7108
      7064      7062      7108      7053      7065      7066      7053      7065      7067
      7053      7065      7068      7066      7065      7067      7066      7065      7068
      7067      7065      7068      7065      7068      7069      7065      7068      7070
      7065      7068      7071      7069      7068      7070      7069      7068      7071
      7070      7068      7071      7068      7071      7072      7068      7071      7073
      7068      7071      7074      7072      7071      7073      7072      7071      7074
      7073      7071      7074      7071      7074      7075      7071      7074      7076
      7071      7074      7077      7075      7074      7076      7075      7074      7077
      7076      7074      7077      7074      7077      7078      7074      7077      7079
      7074      7077      7080      7078      7077      7079      7078      7077      7080
      7079      7077      7080      7077      7080      7081      7077      7080      7082
      7077      7080      7083      7081      7080      7082      7081      7080      7083
      7082      7080      7083      7080      7083      7084      7080      7083      7085
      7080      7083      7086      7084      7083      7085      7084      7083      7086
      7085      7083      7086      7083      7086      7087      7083      7086      7088
      7083      7086      7089      7087      7086      7088      7087      7086      7089
      7088      7086      7089      7086      7089      7090      7086      7089      7091
      7086      7089      7092      7090      7089      7091      7090      7089      7092
      7091      7089      7092      7089      7092      7093      7089      7092      7094
      7089      7092      7095      7093      7092      7094      7093      7092      7095
      7094      7092      7095      7092      7095      7096      7092      7095      7097
      7092      7095      7098      7096      7095      7097      7096      7095      7098
      7097      7095      7098      7095      7098      7099      7095      7098      7100
      7095      7098      7101      7099      7098      7100      7099      7098      7101
      7100      7098      7101      7098      7101      7102      7098      7101      7103
      7098      7101      7104      7102      7101      7103      7102      7101      7104
      7103      7101      7104      7101      7104      7105      7101      7104      7106
      7101      7104      7107      7105      7104      7106      7105      7104      7107
      7106      7104      7107      7062      7108      7109      7062      7108      7110
      7062      7108      7111      7109      7108      7110      7109      7108      7111
      7110      7108      7111      7108      7111      7112      7108      7111      7113
      7108      7111      7114      7112      7111      7113      7112      7111      7114
      7113      7111      7114      7111      7114      7115      7111      7114      7116
      7111      7114      7117      7115      7114      7116      7115      7114      7117
      7116      7114      7117      7114      7117      7118      7114      7117      7119
      7114      7117      7120      7118      7117      7119      7118      7117      7120
      7119      7117      7120      7117      7120      7121      7117      7120      7122
      7117      7120      7123      7121      7120      7122      7121      7120      7123
      7122      7120      7123      7120      7123      7124      7120      7123      7125
      7120      7123      7126      7124      7123      7125      7124      7123      7126
      7125      7123      7126      7123      7126      7127      7123      7126      7128
      7123      7126      7129      7127      7126      7128      7127      7126      7129
      7128      7126      7129      7126      7129      7130      7126      7129      7131
      7126      7129      7132      7130      7129      7131      7130      7129      7132
      7131      7129      7132      7129      7132      7133      7129      7132      7134
      7129      7132      7135      7133      7132      7134      7133      7132      7135
      7134      7132      7135      7132      7135      7136      7132      7135      7137
      7132      7135      7138      7136      7135      7137      7136      7135      7138
      7137      7135      7138      7135      7138      7139      7135      7138      7140
      7135      7138      7141      7139      7138      7140      7139      7138      7141
      7140      7138      7141      7138      7141      7142      7138      7141      7143
      7138      7141      7144      7142      7141      7143      7142      7141      7144
      7143      7141      7144      7141      7144      7145      7141      7144      7146
      7141      7144      7147      7145      7144      7146      7145      7144      7147
      7146      7144      7147      7144      7147      7148      7144      7147      7149
      7144      7147      7150      7148      7147      7149      7148      7147      7150
      7149      7147      7150      7152      7151      7156      7152      7151      7160
      7152      7151      7164      7156      7151      7160      7156      7151      7164
      7160      7151      7164      7151      7152      7153      7151      7152      7154
      7151      7152      7155      7153      7152      7154      7153      7152      7155
      7154      7152      7155      7151      7156      7157      7151      7156      7158
      7151      7156      7159      7157      7156      7158      7157      7156      7159
      7158      7156      7159      7151      7160      7161      7151      7160      7162
      7151      7160      7163      7161      7160      7162      7161      7160      7163
      7162      7160      7163      7151      7164      7165      7151      7164      7166
      7151      7164      7167      7165      7164      7166      7165      7164      7167
      7166      7164      7167      7164      7167      7168      7164      7167      7169
      7164      7167      7174      7168      7167      7169      7168      7167      7174
      7169      7167      7174      7171      7170      7172      7171      7170      7173
      7171      7170      7174      7172      7170      7173      7172      7170      7174
      7173      7170      7174      7170      7173      7175      7167      7174      7170
      7173      7175      7176      7173      7175      7177      7173      7175      7178
      7176      7175      7177      7176      7175      7178      7177      7175      7178
      7175      7178      7179      7175      7178      7180      7175      7178      7186
      7179      7178      7180      7179      7178      7186      7180      7178      7186
      7178      7180      7181      7180      7181      7182      7180      7181      7183
      7182      7181      7183      7181      7183      7184      7181      7183      7185
      7181      7183      7195      7184      7183      7185      7184      7183      7195
      7185      7183      7195      7178      7186      7187      7178      7186      7188
      7178      7186      7189      7187      7186      7188      7187      7186      7189
      7188      7186      7189      7186      7189      7190      7189      7190      7191
      7189      7190      7192      7191      7190      7192      7190      7192      7193
      7190      7192      7194      7190      7192      7238      7193      7192      7194
      7193      7192      7238      7194      7192      7238      7183      7195      7196
      7183      7195      7197      7183      7195      7198      7196      7195      7197
      7196      7195      7198      7197      7195      7198      7195      7198      7199
      7195      7198      7200      7195      7198      7201      7199      7198      7200
      7199      7198      7201      7200      7198      7201      7198      7201      7202
      7198      7201      7203      7198      7201      7204      7202      7201      7203
      7202      7201      7204      7203      7201      7204      7201      7204      7205
      7201      7204      7206      7201      7204      7207      7205      7204      7206
      7205      7204      7207      7206      7204      7207      7204      7207      7208
      7204      7207      7209      7204      7207      7210      7208      7207      7209
      7208      7207      7210      7209      7207      7210      7207      7210      7211
      7207      7210      7212      7207      7210      7213      7211      7210      7212
      7211      7210      7213      7212      7210      7213      7210      7213      7214
      7210      7213      7215      7210      7213      7216      7214      7213      7215
      7214      7213      7216      7215      7213      7216      7213      7216      7217
      7213      7216      7218      7213      7216      7219      7217      7216      7218
      7217      7216      7219      7218      7216      7219      7216      7219      7220
      7216      7219      7221      7216      7219      7222      7220      7219      7221
      7220      7219      7222      7221      7219      7222      7219      7222      7223
      7219      7222      7224      7219      7222      7225      7223      7222      7224
      7223      7222      7225      7224      7222      7225      7222      7225      7226
      7222      7225      7227      7222      7225      7228      7226      7225      7227
      7226      7225      7228      7227      7225      7228      7225      7228      7229
      7225      7228      7230      7225      7228      7231      7229      7228      7230
      7229      7228      7231      7230      7228      7231      7228      7231      7232
      7228      7231      7233      7228      7231      7234      7232      7231      7233
      7232      7231      7234      7233      7231      7234      7231      7234      7235
      7231      7234      7236      7231      7234      7237      7235      7234      7236
      7235      7234      7237      7236      7234      7237      7192      7238      7239
      7192      7238      7240      7192      7238      7241      7239      7238      7240
      7239      7238      7241      7240      7238      7241      7238      7241      7242
      7238      7241      7243      7238      7241      7244      7242      7241      7243
      7242      7241      7244      7243      7241      7244      7241      7244      7245
      7241      7244      7246      7241      7244      7247      7245      7244      7246
      7245      7244      7247      7246      7244      7247      7244      7247      7248
      7244      7247      7249      7244      7247      7250      7248      7247      7249
      7248      7247      7250      7249      7247      7250      7247      7250      7251
      7247      7250      7252      7247      7250      7253      7251      7250      7252
      7251      7250      7253      7252      7250      7253      7250      7253      7254
      7250      7253      7255      7250      7253      7256      7254      7253      7255
      7254      7253      7256      7255      7253      7256      7253      7256      7257
      7253      7256      7258      7253      7256      7259      7257      7256      7258
      7257      7256      7259      7258      7256      7259      7256      7259      7260
      7256      7259      7261      7256      7259      7262      7260      7259      7261
      7260      7259      7262      7261      7259      7262      7259      7262      7263
      7259      7262      7264      7259      7262      7265      7263      7262      7264
      7263      7262      7265      7264      7262      7265      7262      7265      7266
      7262      7265      7267      7262      7265      7268      7266      7265      7267
      7266      7265      7268      7267      7265      7268      7265      7268      7269
      7265      7268      7270      7265      7268      7271      7269      7268      7270
      7269      7268      7271      7270      7268      7271      7268      7271      7272
      7268      7271      7273      7268      7271      7274      7272      7271      7273
      7272      7271      7274      7273      7271      7274      7271      7274      7275
      7271      7274      7276      7271      7274      7277      7275      7274      7276
      7275      7274      7277      7276      7274      7277      7274      7277      7278
      7274      7277      7279      7274      7277      7280      7278      7277      7279
      7278      7277      7280      7279      7277      7280      7282      7281      7286
      7282      7281      7290      7282      7281      7294      7286      7281      7290
      7286      7281      7294      7290      7281      7294      7281      7282      7283
      7281      7282      7284      7281      7282      7285      7283      7282      7284
      7283      7282      7285      7284      7282      7285      7281      7286      7287
      7281      7286      7288      7281      7286      7289      7287      7286      7288
      7287      7286      7289      7288      7286      7289      7281      7290      7291
      7281      7290      7292      7281      7290      7293      7291      7290      7292
      7291      7290      7293      7292      7290      7293      7281      7294      7295
      7281      7294      7296      7281      7294      7297      7295      7294      7296
      7295      7294      7297      7296      7294      7297      7294      7297      7298
      7294      7297      7299      7294      7297      7304      7298      7297      7299
      7298      7297      7304      7299      7297      7304      7301      7300      7302
      7301      7300      7303      7301      7300      7304      7302      7300      7303
      7302      7300      7304      7303      7300      7304      7300      7303      7305
      7297      7304      7300      7303      7305      7306      7303      7305      7307
      7303      7305      7308      7306      7305      7307      7306      7305      7308
      7307      7305      7308      7305      7308      7309      7305      7308      7310
      7305      7308      7316      7309      7308      7310      7309      7308      7316
      7310      7308      7316      7308      7310      7311      7310      7311      7312
      7310      7311      7313      7312      7311      7313      7311      7313      7314
      7311      7313      7315      7311      7313      7325      7314      7313      7315
      7314      7313      7325      7315      7313      7325      7308      7316      7317
      7308      7316      7318      7308      7316      7319      7317      7316      7318
      7317      7316      7319      7318      7316      7319      7316      7319      7320
      7319      7320      7321      7319      7320      7322      7321      7320      7322
      7320      7322      7323      7320      7322      7324      7320      7322      7368
      7323      7322      7324      7323      7322      7368      7324      7322      7368
      7313      7325      7326      7313      7325      7327      7313      7325      7328
      7326      7325      7327      7326      7325      7328      7327      7325      7328
      7325      7328      7329      7325      7328      7330      7325      7328      7331
      7329      7328      7330      7329      7328      7331      7330      7328      7331
      7328      7331      7332      7328      7331      7333      7328      7331      7334
      7332      7331      7333      7332      7331      7334      7333      7331      7334
      7331      7334      7335      7331      7334      7336      7331      7334      7337
      7335      7334      7336      7335      7334      7337      7336      7334      7337
      7334      7337      7338      7334      7337      7339      7334      7337      7340
      7338      7337      7339      7338      7337      7340      7339      7337      7340
      7337      7340      7341      7337      7340      7342      7337      7340      7343
      7341      7340      7342      7341      7340      7343      7342      7340      7343
      7340      7343      7344      7340      7343      7345      7340      7343      7346
      7344      7343      7345      7344      7343      7346      7345      7343      7346
      7343      7346      7347      7343      7346      7348      7343      7346      7349
      7347      7346      7348      7347      7346      7349      7348      7346      7349
      7346      7349      7350      7346      7349      7351      7346      7349      7352
      7350      7349      7351      7350      7349      7352      7351      7349      7352
      7349      7352      7353      7349      7352      7354      7349      7352      7355
      7353      7352      7354      7353      7352      7355      7354      7352      7355
      7352      7355      7356      7352      7355      7357      7352      7355      7358
      7356      7355      7357      7356      7355      7358      7357      7355      7358
      7355      7358      7359      7355      7358      7360      7355      7358      7361
      7359      7358      7360      7359      7358      7361      7360      7358      7361
      7358      7361      7362      7358      7361      7363      7358      7361      7364
      7362      7361      7363      7362      7361      7364      7363      7361      7364
      7361      7364      7365      7361      7364      7366      7361      7364      7367
      7365      7364      7366      7365      7364      7367      7366      7364      7367
      7322      7368      7369      7322      7368      7370      7322      7368      7371
      7369      7368      7370      7369      7368      7371      7370      7368      7371
      7368      7371      7372      7368      7371      7373      7368      7371      7374
      7372      7371      7373      7372      7371      7374      7373      7371      7374
      7371      7374      7375      7371      7374      7376      7371      7374      7377
      7375      7374      7376      7375      7374      7377      7376      7374      7377
      7374      7377      7378      7374      7377      7379      7374      7377      7380
      7378      7377      7379      7378      7377      7380      7379      7377      7380
      7377      7380      7381      7377      7380      7382      7377      7380      7383
      7381      7380      7382      7381      7380      7383      7382      7380      7383
      7380      7383      7384      7380      7383      7385      7380      7383      7386
      7384      7383      7385      7384      7383      7386      7385      7383      7386
      7383      7386      7387      7383      7386      7388      7383      7386      7389
      7387      7386      7388      7387      7386      7389      7388      7386      7389
      7386      7389      7390      7386      7389      7391      7386      7389      7392
      7390      7389      7391      7390      7389      7392      7391      7389      7392
      7389      7392      7393      7389      7392      7394      7389      7392      7395
      7393      7392      7394      7393      7392      7395      7394      7392      7395
      7392      7395      7396      7392      7395      7397      7392      7395      7398
      7396      7395      7397      7396      7395      7398      7397      7395      7398
      7395      7398      7399      7395      7398      7400      7395      7398      7401
      7399      7398      7400      7399      7398      7401      7400      7398      7401
      7398      7401      7402      7398      7401      7403      7398      7401      7404
      7402      7401      7403      7402      7401      7404      7403      7401      7404
      7401      7404      7405      7401      7404      7406      7401      7404      7407
      7405      7404      7406      7405      7404      7407      7406      7404      7407
      7404      7407      7408      7404      7407      7409      7404      7407      7410
      7408      7407      7409      7408      7407      7410      7409      7407      7410
      7412      7411      7416      7412      7411      7420      7412      7411      7424
      7416      7411      7420      7416      7411      7424      7420      7411      7424
      7411      7412      7413      7411      7412      7414      7411      7412      7415
      7413      7412      7414      7413      7412      7415      7414      7412      7415
      7411      7416      7417      7411      7416      7418      7411      7416      7419
      7417      7416      7418      7417      7416      7419      7418      7416      7419
      7411      7420      7421      7411      7420      7422      7411      7420      7423
      7421      7420      7422      7421      7420      7423      7422      7420      7423
      7411      7424      7425      7411      7424      7426      7411      7424      7427
      7425      7424      7426      7425      7424      7427      7426      7424      7427
      7424      7427      7428      7424      7427      7429      7424      7427      7434
      7428      7427      7429      7428      7427      7434      7429      7427      7434
      7431      7430      7432      7431      7430      7433      7431      7430      7434
      7432      7430      7433      7432      7430      7434      7433      7430      7434
      7430      7433      7435      7427      7434      7430      7433      7435      7436
      7433      7435      7437      7433      7435      7438      7436      7435      7437
      7436      7435      7438      7437      7435      7438      7435      7438      7439
      7435      7438      7440      7435      7438      7446      7439      7438      7440
      7439      7438      7446      7440      7438      7446      7438      7440      7441
      7440      7441      7442      7440      7441      7443      7442      7441      7443
      7441      7443      7444      7441      7443      7445      7441      7443      7455
      7444      7443      7445      7444      7443      7455      7445      7443      7455
      7438      7446      7447      7438      7446      7448      7438      7446      7449
      7447      7446      7448      7447      7446      7449      7448      7446      7449
      7446      7449      7450      7449      7450      7451      7449      7450      7452
      7451      7450      7452      7450      7452      7453      7450      7452      7454
      7450      7452      7498      7453      7452      7454      7453      7452      7498
      7454      7452      7498      7443      7455      7456      7443      7455      7457
      7443      7455      7458      7456      7455      7457      7456      7455      7458
      7457      7455      7458      7455      7458      7459      7455      7458      7460
      7455      7458      7461      7459      7458      7460      7459      7458      7461
      7460      7458      7461      7458      7461      7462      7458      7461      7463
      7458      7461      7464      7462      7461      7463      7462      7461      7464
      7463      7461      7464      7461      7464      7465      7461      7464      7466
      7461      7464      7467      7465      7464      7466      7465      7464      7467
      7466      7464      7467      7464      7467      7468      7464      7467      7469
      7464      7467      7470      7468      7467      7469      7468      7467      7470
      7469      7467      7470      7467      7470      7471      7467      7470      7472
      7467      7470      7473      7471      7470      7472      7471      7470      7473
      7472      7470      7473      7470      7473      7474      7470      7473      7475
      7470      7473      7476      7474      7473      7475      7474      7473      7476
      7475      7473      7476      7473      7476      7477      7473      7476      7478
      7473      7476      7479      7477      7476      7478      7477      7476      7479
      7478      7476      7479      7476      7479      7480      7476      7479      7481
      7476      7479      7482      7480      7479      7481      7480      7479      7482
      7481      7479      7482      7479      7482      7483      7479      7482      7484
      7479      7482      7485      7483      7482      7484      7483      7482      7485
      7484      7482      7485      7482      7485      7486      7482      7485      7487
      7482      7485      7488      7486      7485      7487      7486      7485      7488
      7487      7485      7488      7485      7488      7489      7485      7488      7490
      7485      7488      7491      7489      7488      7490      7489      7488      7491
      7490      7488      7491      7488      7491      7492      7488      7491      7493
      7488      7491      7494      7492      7491      7493      7492      7491      7494
      7493      7491      7494      7491      7494      7495      7491      7494      7496
      7491      7494      7497      7495      7494      7496      7495      7494      7497
      7496      7494      7497      7452      7498      7499      7452      7498      7500
      7452      7498      7501      7499      7498      7500      7499      7498      7501
      7500      7498      7501      7498      7501      7502      7498      7501      7503
      7498      7501      7504      7502      7501      7503      7502      7501      7504
      7503      7501      7504      7501      7504      7505      7501      7504      7506
      7501      7504      7507      7505      7504      7506      7505      7504      7507
      7506      7504      7507      7504      7507      7508      7504      7507      7509
      7504      7507      7510      7508      7507      7509      7508      7507      7510
      7509      7507      7510      7507      7510      7511      7507      7510      7512
      7507      7510      7513      7511      7510      7512      7511      7510      7513
      7512      7510      7513      7510      7513      7514      7510      7513      7515
      7510      7513      7516      7514      7513      7515      7514      7513      7516
      7515      7513      7516      7513      7516      7517      7513      7516      7518
      7513      7516      7519      7517      7516      7518      7517      7516      7519
      7518      7516      7519      7516      7519      7520      7516      7519      7521
      7516      7519      7522      7520      7519      7521      7520      7519      7522
      7521      7519      7522      7519      7522      7523      7519      7522      7524
      7519      7522      7525      7523      7522      7524      7523      7522      7525
      7524      7522      7525      7522      7525      7526      7522      7525      7527
      7522      7525      7528      7526      7525      7527      7526      7525      7528
      7527      7525      7528      7525      7528      7529      7525      7528      7530
      7525      7528      7531      7529      7528      7530      7529      7528      7531
      7530      7528      7531      7528      7531      7532      7528      7531      7533
      7528      7531      7534      7532      7531      7533      7532      7531      7534
      7533      7531      7534      7531      7534      7535      7531      7534      7536
      7531      7534      7537      7535      7534      7536      7535      7534      7537
      7536      7534      7537      7534      7537      7538      7534      7537      7539
      7534      7537      7540      7538      7537      7539      7538      7537      7540
      7539      7537      7540      7542      7541      7546      7542      7541      7550
      7542      7541      7554      7546      7541      7550      7546      7541      7554
      7550      7541      7554      7541      7542      7543      7541      7542      7544
      7541      7542      7545      7543      7542      7544      7543      7542      7545
      7544      7542      7545      7541      7546      7547      7541      7546      7548
      7541      7546      7549      7547      7546      7548      7547      7546      7549
      7548      7546      7549      7541      7550      7551      7541      7550      7552
      7541      7550      7553      7551      7550      7552      7551      7550      7553
      7552      7550      7553      7541      7554      7555      7541      7554      7556
      7541      7554      7557      7555      7554      7556      7555      7554      7557
      7556      7554      7557      7554      7557      7558      7554      7557      7559
      7554      7557      7564      7558      7557      7559      7558      7557      7564
      7559      7557      7564      7561      7560      7562      7561      7560      7563
      7561      7560      7564      7562      7560      7563      7562      7560      7564
      7563      7560      7564      7560      7563      7565      7557      7564      7560
      7563      7565      7566      7563      7565      7567      7563      7565      7568
      7566      7565      7567      7566      7565      7568      7567      7565      7568
      7565      7568      7569      7565      7568      7570      7565      7568      7576
      7569      7568      7570      7569      7568      7576      7570      7568      7576
      7568      7570      7571      7570      7571      7572      7570      7571      7573
      7572      7571      7573      7571      7573      7574      7571      7573      7575
      7571      7573      7585      7574      7573      7575      7574      7573      7585
      7575      7573      7585      7568      7576      7577      7568      7576      7578
      7568      7576      7579      7577      7576      7578      7577      7576      7579
      7578      7576      7579      7576      7579      7580      7579      7580      7581
      7579      7580      7582      7581      7580      7582      7580      7582      7583
      7580      7582      7584      7580      7582      7628      7583      7582      7584
      7583      7582      7628      7584      7582      7628      7573      7585      7586
      7573      7585      7587      7573      7585      7588      7586      7585      7587
      7586      7585      7588      7587      7585      7588      7585      7588      7589
      7585      7588      7590      7585      7588      7591      7589      7588      7590
      7589      7588      7591      7590      7588      7591      7588      7591      7592
      7588      7591      7593      7588      7591      7594      7592      7591      7593
      7592      7591      7594      7593      7591      7594      7591      7594      7595
      7591      7594      7596      7591      7594      7597      7595      7594      7596
      7595      7594      7597      7596      7594      7597      7594      7597      7598
      7594      7597      7599      7594      7597      7600      7598      7597      7599
      7598      7597      7600      7599      7597      7600      7597      7600      7601
      7597      7600      7602      7597      7600      7603      7601      7600      7602
      7601      7600      7603      7602      7600      7603      7600      7603      7604
      7600      7603      7605      7600      7603      7606      7604      7603      7605
      7604      7603      7606      7605      7603      7606      7603      7606      7607
      7603      7606      7608      7603      7606      7609      7607      7606      7608
      7607      7606      7609      7608      7606      7609      7606      7609      7610
      7606      7609      7611      7606      7609      7612      7610      7609      7611
      7610      7609      7612      7611      7609      7612      7609      7612      7613
      7609      7612      7614      7609      7612      7615      7613      7612      7614
      7613      7612      7615      7614      7612      7615      7612      7615      7616
      7612      7615      7617      7612      7615      7618      7616      7615      7617
      7616      7615      7618      7617      7615      7618      7615      7618      7619
      7615      7618      7620      7615      7618      7621      7619      7618      7620
      7619      7618      7621      7620      7618      7621      7618      7621      7622
      7618      7621      7623      7618      7621      7624      7622      7621      7623
      7622      7621      7624      7623      7621      7624      7621      7624      7625
      7621      7624      7626      7621      7624      7627      7625      7624      7626
      7625      7624      7627      7626      7624      7627      7582      7628      7629
      7582      7628      7630      7582      7628      7631      7629      7628      7630
      7629      7628      7631      7630      7628      7631      7628      7631      7632
      7628      7631      7633      7628      7631      7634      7632      7631      7633
      7632      7631      7634      7633      7631      7634      7631      7634      7635
      7631      7634      7636      7631      7634      7637      7635      7634      7636
      7635      7634      7637      7636      7634      7637      7634      7637      7638
      7634      7637      7639      7634      7637      7640      7638      7637      7639
      7638      7637      7640      7639      7637      7640      7637      7640      7641
      7637      7640      7642      7637      7640      7643      7641      7640      7642
      7641      7640      7643      7642      7640      7643      7640      7643      7644
      7640      7643      7645      7640      7643      7646      7644      7643      7645
      7644      7643      7646      7645      7643      7646      7643      7646      7647
      7643      7646      7648      7643      7646      7649      7647      7646      7648
      7647      7646      7649      7648      7646      7649      7646      7649      7650
      7646      7649      7651      7646      7649      7652      7650      7649      7651
      7650      7649      7652      7651      7649      7652      7649      7652      7653
      7649      7652      7654      7649      7652      7655      7653      7652      7654
      7653      7652      7655      7654      7652      7655      7652      7655      7656
      7652      7655      7657      7652      7655      7658      7656      7655      7657
      7656      7655      7658      7657      7655      7658      7655      7658      7659
      7655      7658      7660      7655      7658      7661      7659      7658      7660
      7659      7658      7661      7660      7658      7661      7658      7661      7662
      7658      7661      7663      7658      7661      7664      7662      7661      7663
      7662      7661      7664      7663      7661      7664      7661      7664      7665
      7661      7664      7666      7661      7664      7667      7665      7664      7666
      7665      7664      7667      7666      7664      7667      7664      7667      7668
      7664      7667      7669      7664      7667      7670      7668      7667      7669
      7668      7667      7670      7669      7667      7670      7672      7671      7676
      7672      7671      7680      7672      7671      7684      7676      7671      7680
      7676      7671      7684      7680      7671      7684      7671      7672      7673
      7671      7672      7674      7671      7672      7675      7673      7672      7674
      7673      7672      7675      7674      7672      7675      7671      7676      7677
      7671      7676      7678      7671      7676      7679      7677      7676      7678
      7677      7676      7679      7678      7676      7679      7671      7680      7681
      7671      7680      7682      7671      7680      7683      7681      7680      7682
      7681      7680      7683      7682      7680      7683      7671      7684      7685
      7671      7684      7686      7671      7684      7687      7685      7684      7686
      7685      7684      7687      7686      7684      7687      7684      7687      7688
      7684      7687      7689      7684      7687      7694      7688      7687      7689
      7688      7687      7694      7689      7687      7694      7691      7690      7692
      7691      7690      7693      7691      7690      7694      7692      7690      7693
      7692      7690      7694      7693      7690      7694      7690      7693      7695
      7687      7694      7690      7693      7695      7696      7693      7695      7697
      7693      7695      7698      7696      7695      7697      7696      7695      7698
      7697      7695      7698      7695      7698      7699      7695      7698      7700
      7695      7698      7706      7699      7698      7700      7699      7698      7706
      7700      7698      7706      7698      7700      7701      7700      7701      7702
      7700      7701      7703      7702      7701      7703      7701      7703      7704
      7701      7703      7705      7701      7703      7715      7704      7703      7705
      7704      7703      7715      7705      7703      7715      7698      7706      7707
      7698      7706      7708      7698      7706      7709      7707      7706      7708
      7707      7706      7709      7708      7706      7709      7706      7709      7710
      7709      7710      7711      7709      7710      7712      7711      7710      7712
      7710      7712      7713      7710      7712      7714      7710      7712      7758
      7713      7712      7714      7713      7712      7758      7714      7712      7758
      7703      7715      7716      7703      7715      7717      7703      7715      7718
      7716      7715      7717      7716      7715      7718      7717      7715      7718
      7715      7718      7719      7715      7718      7720      7715      7718      7721
      7719      7718      7720      7719      7718      7721      7720      7718      7721
      7718      7721      7722      7718      7721      7723      7718      7721      7724
      7722      7721      7723      7722      7721      7724      7723      7721      7724
      7721      7724      7725      7721      7724      7726      7721      7724      7727
      7725      7724      7726      7725      7724      7727      7726      7724      7727
      7724      7727      7728      7724      7727      7729      7724      7727      7730
      7728      7727      7729      7728      7727      7730      7729      7727      7730
      7727      7730      7731      7727      7730      7732      7727      7730      7733
      7731      7730      7732      7731      7730      7733      7732      7730      7733
      7730      7733      7734      7730      7733      7735      7730      7733      7736
      7734      7733      7735      7734      7733      7736      7735      7733      7736
      7733      7736      7737      7733      7736      7738      7733      7736      7739
      7737      7736      7738      7737      7736      7739      7738      7736      7739
      7736      7739      7740      7736      7739      7741      7736      7739      7742
      7740      7739      7741      7740      7739      7742      7741      7739      7742
      7739      7742      7743      7739      7742      7744      7739      7742      7745
      7743      7742      7744      7743      7742      7745      7744      7742      7745
      7742      7745      7746      7742      7745      7747      7742      7745      7748
      7746      7745      7747      7746      7745      7748      7747      7745      7748
      7745      7748      7749      7745      7748      7750      7745      7748      7751
      7749      7748      7750      7749      7748      7751      7750      7748      7751
      7748      7751      7752      7748      7751      7753      7748      7751      7754
      7752      7751      7753      7752      7751      7754      7753      7751      7754
      7751      7754      7755      7751      7754      7756      7751      7754      7757
      7755      7754      7756      7755      7754      7757      7756      7754      7757
      7712      7758      7759      7712      7758      7760      7712      7758      7761
      7759      7758      7760      7759      7758      7761      7760      7758      7761
      7758      7761      7762      7758      7761      7763      7758      7761      7764
      7762      7761      7763      7762      7761      7764      7763      7761      7764
      7761      7764      7765      7761      7764      7766      7761      7764      7767
      7765      7764      7766      7765      7764      7767      7766      7764      7767
      7764      7767      7768      7764      7767      7769      7764      7767      7770
      7768      7767      7769      7768      7767      7770      7769      7767      7770
      7767      7770      7771      7767      7770      7772      7767      7770      7773
      7771      7770      7772      7771      7770      7773      7772      7770      7773
      7770      7773      7774      7770      7773      7775      7770      7773      7776
      7774      7773      7775      7774      7773      7776      7775      7773      7776
      7773      7776      7777      7773      7776      7778      7773      7776      7779
      7777      7776      7778      7777      7776      7779      7778      7776      7779
      7776      7779      7780      7776      7779      7781      7776      7779      7782
      7780      7779      7781      7780      7779      7782      7781      7779      7782
      7779      7782      7783      7779      7782      7784      7779      7782      7785
      7783      7782      7784      7783      7782      7785      7784      7782      7785
      7782      7785      7786      7782      7785      7787      7782      7785      7788
      7786      7785      7787      7786      7785      7788      7787      7785      7788
      7785      7788      7789      7785      7788      7790      7785      7788      7791
      7789      7788      7790      7789      7788      7791      7790      7788      7791
      7788      7791      7792      7788      7791      7793      7788      7791      7794
      7792      7791      7793      7792      7791      7794      7793      7791      7794
      7791      7794      7795      7791      7794      7796      7791      7794      7797
      7795      7794      7796      7795      7794      7797      7796      7794      7797
      7794      7797      7798      7794      7797      7799      7794      7797      7800
      7798      7797      7799      7798      7797      7800      7799      7797      7800
      7802      7801      7806      7802      7801      7810      7802      7801      7814
      7806      7801      7810      7806      7801      7814      7810      7801      7814
      7801      7802      7803      7801      7802      7804      7801      7802      7805
      7803      7802      7804      7803      7802      7805      7804      7802      7805
      7801      7806      7807      7801      7806      7808      7801      7806      7809
      7807      7806      7808      7807      7806      7809      7808      7806      7809
      7801      7810      7811      7801      7810      7812      7801      7810      7813
      7811      7810      7812      7811      7810      7813      7812      7810      7813
      7801      7814      7815      7801      7814      7816      7801      7814      7817
      7815      7814      7816      7815      7814      7817      7816      7814      7817
      7814      7817      7818      7814      7817      7819      7814      7817      7824
      7818      7817      7819      7818      7817      7824      7819      7817      7824
      7821      7820      7822      7821      7820      7823      7821      7820      7824
      7822      7820      7823      7822      7820      7824      7823      7820      7824
      7820      7823      7825      7817      7824      7820      7823      7825      7826
      7823      7825      7827      7823      7825      7828      7826      7825      7827
      7826      7825      7828      7827      7825      7828      7825      7828      7829
      7825      7828      7830      7825      7828      7836      7829      7828      7830
      7829      7828      7836      7830      7828      7836      7828      7830      7831
      7830      7831      7832      7830      7831      7833      7832      7831      7833
      7831      7833      7834      7831      7833      7835      7831      7833      7845
      7834      7833      7835      7834      7833      7845      7835      7833      7845
      7828      7836      7837      7828      7836      7838      7828      7836      7839
      7837      7836      7838      7837      7836      7839      7838      7836      7839
      7836      7839      7840      7839      7840      7841      7839      7840      7842
      7841      7840      7842      7840      7842      7843      7840      7842      7844
      7840      7842      7888      7843      7842      7844      7843      7842      7888
      7844      7842      7888      7833      7845      7846      7833      7845      7847
      7833      7845      7848      7846      7845      7847      7846      7845      7848
      7847      7845      7848      7845      7848      7849      7845      7848      7850
      7845      7848      7851      7849      7848      7850      7849      7848      7851
      7850      7848      7851      7848      7851      7852      7848      7851      7853
      7848      7851      7854      7852      7851      7853      7852      7851      7854
      7853      7851      7854      7851      7854      7855      7851      7854      7856
      7851      7854      7857      7855      7854      7856      7855      7854      7857
      7856      7854      7857      7854      7857      7858      7854      7857      7859
      7854      7857      7860      7858      7857      7859      7858      7857      7860
      7859      7857      7860      7857      7860      7861      7857      7860      7862
      7857      7860      7863      7861      7860      7862      7861      7860      7863
      7862      7860      7863      7860      7863      7864      7860      7863      7865
      7860      7863      7866      7864      7863      7865      7864      7863      7866
      7865      7863      7866      7863      7866      7867      7863      7866      7868
      7863      7866      7869      7867      7866      7868      7867      7866      7869
      7868      7866      7869      7866      7869      7870      7866      7869      7871
      7866      7869      7872      7870      7869      7871      7870      7869      7872
      7871      7869      7872      7869      7872      7873      7869      7872      7874
      7869      7872      7875      7873      7872      7874      7873      7872      7875
      7874      7872      7875      7872      7875      7876      7872      7875      7877
      7872      7875      7878      7876      7875      7877      7876      7875      7878
      7877      7875      7878      7875      7878      7879      7875      7878      7880
      7875      7878      7881      7879      7878      7880      7879      7878      7881
      7880      7878      7881      7878      7881      7882      7878      7881      7883
      7878      7881      7884      7882      7881      7883      7882      7881      7884
      7883      7881      7884      7881      7884      7885      7881      7884      7886
      7881      7884      7887      7885      7884      7886      7885      7884      7887
      7886      7884      7887      7842      7888      7889      7842      7888      7890
      7842      7888      7891      7889      7888      7890      7889      7888      7891
      7890      7888      7891      7888      7891      7892      7888      7891      7893
      7888      7891      7894      7892      7891      7893      7892      7891      7894
      7893      7891      7894      7891      7894      7895      7891      7894      7896
      7891      7894      7897      7895      7894      7896      7895      7894      7897
      7896      7894      7897      7894      7897      7898      7894      7897      7899
      7894      7897      7900      7898      7897      7899      7898      7897      7900
      7899      7897      7900      7897      7900      7901      7897      7900      7902
      7897      7900      7903      7901      7900      7902      7901      7900      7903
      7902      7900      7903      7900      7903      7904      7900      7903      7905
      7900      7903      7906      7904      7903      7905      7904      7903      7906
      7905      7903      7906      7903      7906      7907      7903      7906      7908
      7903      7906      7909      7907      7906      7908      7907      7906      7909
      7908      7906      7909      7906      7909      7910      7906      7909      7911
      7906      7909      7912      7910      7909      7911      7910      7909      7912
      7911      7909      7912      7909      7912      7913      7909      7912      7914
      7909      7912      7915      7913      7912      7914      7913      7912      7915
      7914      7912      7915      7912      7915      7916      7912      7915      7917
      7912      7915      7918      7916      7915      7917      7916      7915      7918
      7917      7915      7918      7915      7918      7919      7915      7918      7920
      7915      7918      7921      7919      7918      7920      7919      7918      7921
      7920      7918      7921      7918      7921      7922      7918      7921      7923
      7918      7921      7924      7922      7921      7923      7922      7921      7924
      7923      7921      7924      7921      7924      7925      7921      7924      7926
      7921      7924      7927      7925      7924      7926      7925      7924      7927
      7926      7924      7927      7924      7927      7928      7924      7927      7929
      7924      7927      7930      7928      7927      7929      7928      7927      7930
      7929      7927      7930      7932      7931      7936      7932      7931      7940
      7932      7931      7944      7936      7931      7940      7936      7931      7944
      7940      7931      7944      7931      7932      7933      7931      7932      7934
      7931      7932      7935      7933      7932      7934      7933      7932      7935
      7934      7932      7935      7931      7936      7937      7931      7936      7938
      7931      7936      7939      7937      7936      7938      7937      7936      7939
      7938      7936      7939      7931      7940      7941      7931      7940      7942
      7931      7940      7943      7941      7940      7942      7941      7940      7943
      7942      7940      7943      7931      7944      7945      7931      7944      7946
      7931      7944      7947      7945      7944      7946      7945      7944      7947
      7946      7944      7947      7944      7947      7948      7944      7947      7949
      7944      7947      7954      7948      7947      7949      7948      7947      7954
      7949      7947      7954      7951      7950      7952      7951      7950      7953
      7951      7950      7954      7952      7950      7953      7952      7950      7954
      7953      7950      7954      7950      7953      7955      7947      7954      7950
      7953      7955      7956      7953      7955      7957      7953      7955      7958
      7956      7955      7957      7956      7955      7958      7957      7955      7958
      7955      7958      7959      7955      7958      7960      7955      7958      7966
      7959      7958      7960      7959      7958      7966      7960      7958      7966
      7958      7960      7961      7960      7961      7962      7960      7961      7963
      7962      7961      7963      7961      7963      7964      7961      7963      7965
      7961      7963      7975      7964      7963      7965      7964      7963      7975
      7965      7963      7975      7958      7966      7967      7958      7966      7968
      7958      7966      7969      7967      7966      7968      7967      7966      7969
      7968      7966      7969      7966      7969      7970      7969      7970      7971
      7969      7970      7972      7971      7970      7972      7970      7972      7973
      7970      7972      7974      7970      7972      8018      7973      7972      7974
      7973      7972      8018      7974      7972      8018      7963      7975      7976
      7963      7975      7977      7963      7975      7978      7976      7975      7977
      7976      7975      7978      7977      7975      7978      7975      7978      7979
      7975      7978      7980      7975      7978      7981      7979      7978      7980
      7979      7978      7981      7980      7978      7981      7978      7981      7982
      7978      7981      7983      7978      7981      7984      7982      7981      7983
      7982      7981      7984      7983      7981      7984      7981      7984      7985
      7981      7984      7986      7981      7984      7987      7985      7984      7986
      7985      7984      7987      7986      7984      7987      7984      7987      7988
      7984      7987      7989      7984      7987      7990      7988      7987      7989
      7988      7987      7990      7989      7987      7990      7987      7990      7991
      7987      7990      7992      7987      7990      7993      7991      7990      7992
      7991      7990      7993      7992      7990      7993      7990      7993      7994
      7990      7993      7995      7990      7993      7996      7994      7993      7995
      7994      7993      7996      7995      7993      7996      7993      7996      7997
      7993      7996      7998      7993      7996      7999      7997      7996      7998
      7997      7996      7999      7998      7996      7999      7996      7999      8000
      7996      7999      8001      7996      7999      8002      8000      7999      8001
      8000      7999      8002      8001      7999      8002      7999      8002      8003
      7999      8002      8004      7999      8002      8005      8003      8002      8004
      8003      8002      8005      8004      8002      8005      8002      8005      8006
      8002      8005      8007      8002      8005      8008      8006      8005      8007
      8006      8005      8008      8007      8005      8008      8005      8008      8009
      8005      8008      8010      8005      8008      8011      8009      8008      8010
      8009      8008      8011      8010      8008      8011      8008      8011      8012
      8008      8011      8013      8008      8011      8014      8012      8011      8013
      8012      8011      8014      8013      8011      8014      8011      8014      8015
      8011      8014      8016      8011      8014      8017      8015      8014      8016
      8015      8014      8017      8016      8014      8017      7972      8018      8019
      7972      8018      8020      7972      8018      8021      8019      8018      8020
      8019      8018      8021      8020      8018      8021      8018      8021      8022
      8018      8021      8023      8018      8021      8024      8022      8021      8023
      8022      8021      8024      8023      8021      8024      8021      8024      8025
      8021      8024      8026      8021      8024      8027      8025      8024      8026
      8025      8024      8027      8026      8024      8027      8024      8027      8028
      8024      8027      8029      8024      8027      8030      8028      8027      8029
      8028      8027      8030      8029      8027      8030      8027      8030      8031
      8027      8030      8032      8027      8030      8033      8031      8030      8032
      8031      8030      8033      8032      8030      8033      8030      8033      8034
      8030      8033      8035      8030      8033      8036      8034      8033      8035
      8034      8033      8036      8035      8033      8036      8033      8036      8037
      8033      8036      8038      8033      8036      8039      8037      8036      8038
      8037      8036      8039      8038      8036      8039      8036      8039      8040
      8036      8039      8041      8036      8039      8042      8040      8039      8041
      8040      8039      8042      8041      8039      8042      8039      8042      8043
      8039      8042      8044      8039      8042      8045      8043      8042      8044
      8043      8042      8045      8044      8042      8045      8042      8045      8046
      8042      8045      8047      8042      8045      8048      8046      8045      8047
      8046      8045      8048      8047      8045      8048      8045      8048      8049
      8045      8048      8050      8045      8048      8051      8049      8048      8050
      8049      8048      8051      8050      8048      8051      8048      8051      8052
      8048      8051      8053      8048      8051      8054      8052      8051      8053
      8052      8051      8054      8053      8051      8054      8051      8054      8055
      8051      8054      8056      8051      8054      8057      8055      8054      8056
      8055      8054      8057      8056      8054      8057      8054      8057      8058
      8054      8057      8059      8054      8057      8060      8058      8057      8059
      8058      8057      8060      8059      8057      8060      8062      8061      8066
      8062      8061      8070      8062      8061      8074      8066      8061      8070
      8066      8061      8074      8070      8061      8074      8061      8062      8063
      8061      8062      8064      8061      8062      8065      8063      8062      8064
      8063      8062      8065      8064      8062      8065      8061      8066      8067
      8061      8066      8068      8061      8066      8069      8067      8066      8068
      8067      8066      8069      8068      8066      8069      8061      8070      8071
      8061      8070      8072      8061      8070      8073      8071      8070      8072
      8071      8070      8073      8072      8070      8073      8061      8074      8075
      8061      8074      8076      8061      8074      8077      8075      8074      8076
      8075      8074      8077      8076      8074      8077      8074      8077      8078
      8074      8077      8079      8074      8077      8084      8078      8077      8079
      8078      8077      8084      8079      8077      8084      8081      8080      8082
      8081      8080      8083      8081      8080      8084      8082      8080      8083
      8082      8080      8084      8083      8080      8084      8080      8083      8085
      8077      8084      8080      8083      8085      8086      8083      8085      8087
      8083      8085      8088      8086      8085      8087      8086      8085      8088
      8087      8085      8088      8085      8088      8089      8085      8088      8090
      8085      8088      8096      8089      8088      8090      8089      8088      8096
      8090      8088      8096      8088      8090      8091      8090      8091      8092
      8090      8091      8093      8092      8091      8093      8091      8093      8094
      8091      8093      8095      8091      8093      8105      8094      8093      8095
      8094      8093      8105      8095      8093      8105      8088      8096      8097
      8088      8096      8098      8088      8096      8099      8097      8096      8098
      8097      8096      8099      8098      8096      8099      8096      8099      8100
      8099      8100      8101      8099      8100      8102      8101      8100      8102
      8100      8102      8103      8100      8102      8104      8100      8102      8148
      8103      8102      8104      8103      8102      8148      8104      8102      8148
      8093      8105      8106      8093      8105      8107      8093      8105      8108
      8106      8105      8107      8106      8105      8108      8107      8105      8108
      8105      8108      8109      8105      8108      8110      8105      8108      8111
      8109      8108      8110      8109      8108      8111      8110      8108      8111
      8108      8111      8112      8108      8111      8113      8108      8111      8114
      8112      8111      8113      8112      8111      8114      8113      8111      8114
      8111      8114      8115      8111      8114      8116      8111      8114      8117
      8115      8114      8116      8115      8114      8117      8116      8114      8117
      8114      8117      8118      8114      8117      8119      8114      8117      8120
      8118      8117      8119      8118      8117      8120      8119      8117      8120
      8117      8120      8121      8117      8120      8122      8117      8120      8123
      8121      8120      8122      8121      8120      8123      8122      8120      8123
      8120      8123      8124      8120      8123      8125      8120      8123      8126
      8124      8123      8125      8124      8123      8126      8125      8123      8126
      8123      8126      8127      8123      8126      8128      8123      8126      8129
      8127      8126      8128      8127      8126      8129      8128      8126      8129
      8126      8129      8130      8126      8129      8131      8126      8129      8132
      8130      8129      8131      8130      8129      8132      8131      8129      8132
      8129      8132      8133      8129      8132      8134      8129      8132      8135
      8133      8132      8134      8133      8132      8135      8134      8132      8135
      8132      8135      8136      8132      8135      8137      8132      8135      8138
      8136      8135      8137      8136      8135      8138      8137      8135      8138
      8135      8138      8139      8135      8138      8140      8135      8138      8141
      8139      8138      8140      8139      8138      8141      8140      8138      8141
      8138      8141      8142      8138      8141      8143      8138      8141      8144
      8142      8141      8143      8142      8141      8144      8143      8141      8144
      8141      8144      8145      8141      8144      8146      8141      8144      8147
      8145      8144      8146      8145      8144      8147      8146      8144      8147
      8102      8148      8149      8102      8148      8150      8102      8148      8151
      8149      8148      8150      8149      8148      8151      8150      8148      8151
      8148      8151      8152      8148      8151      8153      8148      8151      8154
      8152      8151      8153      8152      8151      8154      8153      8151      8154
      8151      8154      8155      8151      8154      8156      8151      8154      8157
      8155      8154      8156      8155      8154      8157      8156      8154      8157
      8154      8157      8158      8154      8157      8159      8154      8157      8160
      8158      8157      8159      8158      8157      8160      8159      8157      8160
      8157      8160      8161      8157      8160      8162      8157      8160      8163
      8161      8160      8162      8161      8160      8163      8162      8160      8163
      8160      8163      8164      8160      8163      8165      8160      8163      8166
      8164      8163      8165      8164      8163      8166      8165      8163      8166
      8163      8166      8167      8163      8166      8168      8163      8166      8169
      8167      8166      8168      8167      8166      8169      8168      8166      8169
      8166      8169      8170      8166      8169      8171      8166      8169      8172
      8170      8169      8171      8170      8169      8172      8171      8169      8172
      8169      8172      8173      8169      8172      8174      8169      8172      8175
      8173      8172      8174      8173      8172      8175      8174      8172      8175
      8172      8175      8176      8172      8175      8177      8172      8175      8178
      8176      8175      8177      8176      8175      8178      8177      8175      8178
      8175      8178      8179      8175      8178      8180      8175      8178      8181
      8179      8178      8180      8179      8178      8181      8180      8178      8181
      8178      8181      8182      8178      8181      8183      8178      8181      8184
      8182      8181      8183      8182      8181      8184      8183      8181      8184
      8181      8184      8185      8181      8184      8186      8181      8184      8187
      8185      8184      8186      8185      8184      8187      8186      8184      8187
      8184      8187      8188      8184      8187      8189      8184      8187      8190
      8188      8187      8189      8188      8187      8190      8189      8187      8190
      8192      8191      8196      8192      8191      8200      8192      8191      8204
      8196      8191      8200      8196      8191      8204      8200      8191      8204
      8191      8192      8193      8191      8192      8194      8191      8192      8195
      8193      8192      8194      8193      8192      8195      8194      8192      8195
      8191      8196      8197      8191      8196      8198      8191      8196      8199
      8197      8196      8198      8197      8196      8199      8198      8196      8199
      8191      8200      8201      8191      8200      8202      8191      8200      8203
      8201      8200      8202      8201      8200      8203      8202      8200      8203
      8191      8204      8205      8191      8204      8206      8191      8204      8207
      8205      8204      8206      8205      8204      8207      8206      8204      8207
      8204      8207      8208      8204      8207      8209      8204      8207      8214
      8208      8207      8209      8208      8207      8214      8209      8207      8214
      8211      8210      8212      8211      8210      8213      8211      8210      8214
      8212      8210      8213      8212      8210      8214      8213      8210      8214
      8210      8213      8215      8207      8214      8210      8213      8215      8216
      8213      8215      8217      8213      8215      8218      8216      8215      8217
      8216      8215      8218      8217      8215      8218      8215      8218      8219
      8215      8218      8220      8215      8218      8226      8219      8218      8220
      8219      8218      8226      8220      8218      8226      8218      8220      8221
      8220      8221      8222      8220      8221      8223      8222      8221      8223
      8221      8223      8224      8221      8223      8225      8221      8223      8235
      8224      8223      8225      8224      8223      8235      8225      8223      8235
      8218      8226      8227      8218      8226      8228      8218      8226      8229
      8227      8226      8228      8227      8226      8229      8228      8226      8229
      8226      8229      8230      8229      8230      8231      8229      8230      8232
      8231      8230      8232      8230      8232      8233      8230      8232      8234
      8230      8232      8278      8233      8232      8234      8233      8232      8278
      8234      8232      8278      8223      8235      8236      8223      8235      8237
      8223      8235      8238      8236      8235      8237      8236      8235      8238
      8237      8235      8238      8235      8238      8239      8235      8238      8240
      8235      8238      8241      8239      8238      8240      8239      8238      8241
      8240      8238      8241      8238      8241      8242      8238      8241      8243
      8238      8241      8244      8242      8241      8243      8242      8241      8244
      8243      8241      8244      8241      8244      8245      8241      8244      8246
      8241      8244      8247      8245      8244      8246      8245      8244      8247
      8246      8244      8247      8244      8247      8248      8244      8247      8249
      8244      8247      8250      8248      8247      8249      8248      8247      8250
      8249      8247      8250      8247      8250      8251      8247      8250      8252
      8247      8250      8253      8251      8250      8252      8251      8250      8253
      8252      8250      8253      8250      8253      8254      8250      8253      8255
      8250      8253      8256      8254      8253      8255      8254      8253      8256
      8255      8253      8256      8253      8256      8257      8253      8256      8258
      8253      8256      8259      8257      8256      8258      8257      8256      8259
      8258      8256      8259      8256      8259      8260      8256      8259      8261
      8256      8259      8262      8260      8259      8261      8260      8259      8262
      8261      8259      8262      8259      8262      8263      8259      8262      8264
      8259      8262      8265      8263      8262      8264      8263      8262      8265
      8264      8262      8265      8262      8265      8266      8262      8265      8267
      8262      8265      8268      8266      8265      8267      8266      8265      8268
      8267      8265      8268      8265      8268      8269      8265      8268      8270
      8265      8268      8271      8269      8268      8270      8269      8268      8271
      8270      8268      8271      8268      8271      8272      8268      8271      8273
      8268      8271      8274      8272      8271      8273      8272      8271      8274
      8273      8271      8274      8271      8274      8275      8271      8274      8276
      8271      8274      8277      8275      8274      8276      8275      8274      8277
      8276      8274      8277      8232      8278      8279      8232      8278      8280
      8232      8278      8281      8279      8278      8280      8279      8278      8281
      8280      8278      8281      8278      8281      8282      8278      8281      8283
      8278      8281      8284      8282      8281      8283      8282      8281      8284
      8283      8281      8284      8281      8284      8285      8281      8284      8286
      8281      8284      8287      8285      8284      8286      8285      8284      8287
      8286      8284      8287      8284      8287      8288      8284      8287      8289
      8284      8287      8290      8288      8287      8289      8288      8287      8290
      8289      8287      8290      8287      8290      8291      8287      8290      8292
      8287      8290      8293      8291      8290      8292      8291      8290      8293
      8292      8290      8293      8290      8293      8294      8290      8293      8295
      8290      8293      8296      8294      8293      8295      8294      8293      8296
      8295      8293      8296      8293      8296      8297      8293      8296      8298
      8293      8296      8299      8297      8296      8298      8297      8296      8299
      8298      8296      8299      8296      8299      8300      8296      8299      8301
      8296      8299      8302      8300      8299      8301      8300      8299      8302
      8301      8299      8302      8299      8302      8303      8299      8302      8304
      8299      8302      8305      8303      8302      8304      8303      8302      8305
      8304      8302      8305      8302      8305      8306      8302      8305      8307
      8302      8305      8308      8306      8305      8307      8306      8305      8308
      8307      8305      8308      8305      8308      8309      8305      8308      8310
      8305      8308      8311      8309      8308      8310      8309      8308      8311
      8310      8308      8311      8308      8311      8312      8308      8311      8313
      8308      8311      8314      8312      8311      8313      8312      8311      8314
      8313      8311      8314      8311      8314      8315      8311      8314      8316
      8311      8314      8317      8315      8314      8316      8315      8314      8317
      8316      8314      8317      8314      8317      8318      8314      8317      8319
      8314      8317      8320      8318      8317      8319      8318      8317      8320
      8319      8317      8320      8322      8321      8323      8325      8324      8326
      8328      8327      8329      8331      8330      8332      8334      8333      8335
      8337      8336      8338      8340      8339      8341      8343      8342      8344
      8346      8345      8347      8349      8348      8350      8352      8351      8353
      8355      8354      8356      8358      8357      8359      8361      8360      8362
      8364      8363      8365      8367      8366      8368      8370      8369      8371
      8373      8372      8374      8376      8375      8377      8379      8378      8380
      8382      8381      8383      8385      8384      8386      8388      8387      8389
      8391      8390      8392      8394      8393      8395      8397      8396      8398
      8400      8399      8401      8403      8402      8404      8406      8405      8407
      8409      8408      8410      8412      8411      8413      8415      8414      8416
      8418      8417      8419      8421      8420      8422      8424      8423      8425
      8427      8426      8428      8430      8429      8431      8433      8432      8434
      8436      8435      8437      8439      8438      8440      8442      8441      8443
      8445      8444      8446      8448      8447      8449      8451      8450      8452
      8454      8453      8455      8457      8456      8458      8460      8459      8461
      8463      8462      8464      8466      8465      8467      8469      8468      8470
      8472      8471      8473      8475      8474      8476      8478      8477      8479
      8481      8480      8482      8484      8483      8485      8487      8486      8488
      8490      8489      8491      8493      8492      8494      8496      8495      8497
      8499      8498      8500      8502      8501      8503      8505      8504      8506
      8508      8507      8509      8511      8510      8512      8514      8513      8515
      8517      8516      8518      8520      8519      8521      8523      8522      8524
      8526      8525      8527      8529      8528      8530      8532      8531      8533
      8535      8534      8536      8538      8537      8539      8541      8540      8542
      8544      8543      8545      8547      8546      8548      8550      8549      8551
      8553      8552      8554      8556      8555      8557      8559      8558      8560
      8562      8561      8563      8565      8564      8566      8568      8567      8569
      8571      8570      8572      8574      8573      8575      8577      8576      8578
      8580      8579      8581      8583      8582      8584      8586      8585      8587
      8589      8588      8590      8592      8591      8593      8595      8594      8596
      8598      8597      8599      8601      8600      8602      8604      8603      8605
      8607      8606      8608      8610      8609      8611      8613      8612      8614
      8616      8615      8617      8619      8618      8620      8622      8621      8623
      8625      8624      8626      8628      8627      8629      8631      8630      8632
      8634      8633      8635      8637      8636      8638      8640      8639      8641
      8643      8642      8644      8646      8645      8647      8649      8648      8650
      8652      8651      8653      8655      8654      8656      8658      8657      8659
      8661      8660      8662      8664      8663      8665      8667      8666      8668
      8670      8669      8671      8673      8672      8674      8676      8675      8677
      8679      8678      8680      8682      8681      8683      8685      8684      8686
      8688      8687      8689      8691      8690      8692      8694      8693      8695
      8697      8696      8698      8700      8699      8701      8703      8702      8704
      8706      8705      8707      8709      8708      8710      8712      8711      8713
      8715      8714      8716      8718      8717      8719      8721      8720      8722
      8724      8723      8725      8727      8726      8728      8730      8729      8731
      8733      8732      8734      8736      8735      8737      8739      8738      8740
      8742      8741      8743      8745      8744      8746      8748      8747      8749
      8751      8750      8752      8754      8753      8755      8757      8756      8758
      8760      8759      8761      8763      8762      8764      8766      8765      8767
      8769      8768      8770      8772      8771      8773      8775      8774      8776
      8778      8777      8779      8781      8780      8782      8784      8783      8785
      8787      8786      8788      8790      8789      8791      8793      8792      8794
      8796      8795      8797      8799      8798      8800      8802      8801      8803
      8805      8804      8806      8808      8807      8809      8811      8810      8812
      8814      8813      8815      8817      8816      8818      8820      8819      8821
      8823      8822      8824      8826      8825      8827      8829      8828      8830
      8832      8831      8833      8835      8834      8836      8838      8837      8839
      8841      8840      8842      8844      8843      8845      8847      8846      8848
      8850      8849      8851      8853      8852      8854      8856      8855      8857
      8859      8858      8860      8862      8861      8863      8865      8864      8866
      8868      8867      8869      8871      8870      8872      8874      8873      8875
      8877      8876      8878      8880      8879      8881      8883      8882      8884
      8886      8885      8887      8889      8888      8890      8892      8891      8893
      8895      8894      8896      8898      8897      8899      8901      8900      8902
      8904      8903      8905      8907      8906      8908      8910      8909      8911
      8913      8912      8914      8916      8915      8917      8919      8918      8920
      8922      8921      8923      8925      8924      8926      8928      8927      8929
      8931      8930      8932      8934      8933      8935      8937      8936      8938
      8940      8939      8941      8943      8942      8944      8946      8945      8947
      8949      8948      8950      8952      8951      8953      8955      8954      8956
      8958      8957      8959      8961      8960      8962      8964      8963      8965
      8967      8966      8968      8970      8969      8971      8973      8972      8974
      8976      8975      8977      8979      8978      8980      8982      8981      8983
      8985      8984      8986      8988      8987      8989      8991      8990      8992
      8994      8993      8995      8997      8996      8998      9000      8999      9001
      9003      9002      9004      9006      9005      9007      9009      9008      9010
      9012      9011      9013      9015      9014      9016      9018      9017      9019
      9021      9020      9022      9024      9023      9025      9027      9026      9028
      9030      9029      9031      9033      9032      9034      9036      9035      9037
      9039      9038      9040      9042      9041      9043      9045      9044      9046
      9048      9047      9049      9051      9050      9052      9054      9053      9055
      9057      9056      9058      9060      9059      9061      9063      9062      9064
      9066      9065      9067      9069      9068      9070      9072      9071      9073
      9075      9074      9076      9078      9077      9079      9081      9080      9082
      9084      9083      9085      9087      9086      9088      9090      9089      9091
      9093      9092      9094      9096      9095      9097      9099      9098      9100
      9102      9101      9103      9105      9104      9106      9108      9107      9109
      9111      9110      9112      9114      9113      9115      9117      9116      9118
      9120      9119      9121      9123      9122      9124      9126      9125      9127
      9129      9128      9130      9132      9131      9133      9135      9134      9136
      9138      9137      9139      9141      9140      9142      9144      9143      9145
      9147      9146      9148      9150      9149      9151      9153      9152      9154
      9156      9155      9157      9159      9158      9160      9162      9161      9163
      9165      9164      9166      9168      9167      9169      9171      9170      9172
      9174      9173      9175      9177      9176      9178      9180      9179      9181
      9183      9182      9184      9186      9185      9187      9189      9188      9190
      9192      9191      9193      9195      9194      9196      9198      9197      9199
      9201      9200      9202      9204      9203      9205      9207      9206      9208
      9210      9209      9211      9213      9212      9214      9216      9215      9217
      9219      9218      9220      9222      9221      9223      9225      9224      9226
      9228      9227      9229      9231      9230      9232      9234      9233      9235
      9237      9236      9238      9240      9239      9241      9243      9242      9244
      9246      9245      9247      9249      9248      9250      9252      9251      9253
      9255      9254      9256      9258      9257      9259      9261      9260      9262
      9264      9263      9265      9267      9266      9268      9270      9269      9271
      9273      9272      9274      9276      9275      9277      9279      9278      9280
      9282      9281      9283      9285      9284      9286      9288      9287      9289
      9291      9290      9292      9294      9293      9295      9297      9296      9298
      9300      9299      9301      9303      9302      9304      9306      9305      9307
      9309      9308      9310      9312      9311      9313      9315      9314      9316
      9318      9317      9319      9321      9320      9322      9324      9323      9325
      9327      9326      9328      9330      9329      9331      9333      9332      9334
      9336      9335      9337      9339      9338      9340      9342      9341      9343
      9345      9344      9346      9348      9347      9349      9351      9350      9352
      9354      9353      9355      9357      9356      9358      9360      9359      9361
      9363      9362      9364      9366      9365      9367      9369      9368      9370
      9372      9371      9373      9375      9374      9376      9378      9377      9379
      9381      9380      9382      9384      9383      9385      9387      9386      9388
      9390      9389      9391      9393      9392      9394      9396      9395      9397
      9399      9398      9400      9402      9401      9403      9405      9404      9406
      9408      9407      9409      9411      9410      9412      9414      9413      9415
      9417      9416      9418      9420      9419      9421      9423      9422      9424
      9426      9425      9427      9429      9428      9430      9432      9431      9433
      9435      9434      9436      9438      9437      9439      9441      9440      9442
      9444      9443      9445      9447      9446      9448      9450      9449      9451
      9453      9452      9454      9456      9455      9457      9459      9458      9460
      9462      9461      9463      9465      9464      9466      9468      9467      9469
      9471      9470      9472      9474      9473      9475      9477      9476      9478
      9480      9479      9481      9483      9482      9484      9486      9485      9487
      9489      9488      9490      9492      9491      9493      9495      9494      9496
      9498      9497      9499      9501      9500      9502      9504      9503      9505
      9507      9506      9508      9510      9509      9511      9513      9512      9514
      9516      9515      9517      9519      9518      9520      9522      9521      9523
      9525      9524      9526      9528      9527      9529      9531      9530      9532
      9534      9533      9535      9537      9536      9538      9540      9539      9541
      9543      9542      9544      9546      9545      9547      9549      9548      9550
      9552      9551      9553      9555      9554      9556      9558      9557      9559
      9561      9560      9562      9564      9563      9565      9567      9566      9568
      9570      9569      9571      9573      9572      9574      9576      9575      9577
      9579      9578      9580      9582      9581      9583      9585      9584      9586
      9588      9587      9589      9591      9590      9592      9594      9593      9595
      9597      9596      9598      9600      9599      9601      9603      9602      9604
      9606      9605      9607      9609      9608      9610      9612      9611      9613
      9615      9614      9616      9618      9617      9619      9621      9620      9622
      9624      9623      9625      9627      9626      9628      9630      9629      9631
      9633      9632      9634      9636      9635      9637      9639      9638      9640
      9642      9641      9643      9645      9644      9646      9648      9647      9649
      9651      9650      9652      9654      9653      9655      9657      9656      9658
      9660      9659      9661      9663      9662      9664      9666      9665      9667
      9669      9668      9670      9672      9671      9673      9675      9674      9676
      9678      9677      9679      9681      9680      9682      9684      9683      9685
      9687      9686      9688      9690      9689      9691      9693      9692      9694
      9696      9695      9697      9699      9698      9700      9702      9701      9703
      9705      9704      9706      9708      9707      9709      9711      9710      9712
      9714      9713      9715      9717      9716      9718      9720      9719      9721
      9723      9722      9724      9726      9725      9727      9729      9728      9730
      9732      9731      9733      9735      9734      9736      9738      9737      9739
      9741      9740      9742      9744      9743      9745      9747      9746      9748
      9750      9749      9751      9753      9752      9754      9756      9755      9757
      9759      9758      9760      9762      9761      9763      9765      9764      9766
      9768      9767      9769      9771      9770      9772      9774      9773      9775
      9777      9776      9778      9780      9779      9781      9783      9782      9784
      9786      9785      9787      9789      9788      9790      9792      9791      9793
      9795      9794      9796      9798      9797      9799      9801      9800      9802
      9804      9803      9805      9807      9806      9808      9810      9809      9811
      9813      9812      9814      9816      9815      9817      9819      9818      9820
      9822      9821      9823      9825      9824      9826      9828      9827      9829
      9831      9830      9832      9834      9833      9835      9837      9836      9838
      9840      9839      9841      9843      9842      9844      9846      9845      9847
      9849      9848      9850      9852      9851      9853      9855      9854      9856
      9858      9857      9859      9861      9860      9862      9864      9863      9865
      9867      9866      9868      9870      9869      9871      9873      9872      9874
      9876      9875      9877      9879      9878      9880      9882      9881      9883
      9885      9884      9886      9888      9887      9889      9891      9890      9892
      9894      9893      9895      9897      9896      9898      9900      9899      9901
      9903      9902      9904      9906      9905      9907      9909      9908      9910
      9912      9911      9913      9915      9914      9916      9918      9917      9919
      9921      9920      9922      9924      9923      9925      9927      9926      9928
      9930      9929      9931      9933      9932      9934      9936      9935      9937
      9939      9938      9940      9942      9941      9943      9945      9944      9946
      9948      9947      9949      9951      9950      9952      9954      9953      9955
      9957      9956      9958      9960      9959      9961      9963      9962      9964
      9966      9965      9967      9969      9968      9970      9972      9971      9973
      9975      9974      9976      9978      9977      9979      9981      9980      9982
      9984      9983      9985      9987      9986      9988      9990      9989      9991
      9993      9992      9994      9996      9995      9997      9999      9998     10000
     10002     10001     10003     10005     10004     10006     10008     10007     10009
     10011     10010     10012     10014     10013     10015     10017     10016     10018
     10020     10019     10021     10023     10022     10024     10026     10025     10027
     10029     10028     10030     10032     10031     10033     10035     10034     10036
     10038     10037     10039     10041     10040     10042     10044     10043     10045
     10047     10046     10048     10050     10049     10051     10053     10052     10054
     10056     10055     10057     10059     10058     10060     10062     10061     10063
     10065     10064     10066     10068     10067     10069     10071     10070     10072
     10074     10073     10075     10077     10076     10078     10080     10079     10081
     10083     10082     10084     10086     10085     10087     10089     10088     10090
     10092     10091     10093     10095     10094     10096     10098     10097     10099
     10101     10100     10102     10104     10103     10105     10107     10106     10108
     10110     10109     10111     10113     10112     10114     10116     10115     10117
     10119     10118     10120     10122     10121     10123     10125     10124     10126
     10128     10127     10129     10131     10130     10132     10134     10133     10135
     10137     10136     10138     10140     10139     10141     10143     10142     10144
     10146     10145     10147     10149     10148     10150     10152     10151     10153
     10155     10154     10156     10158     10157     10159     10161     10160     10162
     10164     10163     10165     10167     10166     10168     10170     10169     10171
     10173     10172     10174     10176     10175     10177     10179     10178     10180
     10182     10181     10183     10185     10184     10186     10188     10187     10189
     10191     10190     10192     10194     10193     10195     10197     10196     10198
     10200     10199     10201     10203     10202     10204     10206     10205     10207
     10209     10208     10210     10212     10211     10213     10215     10214     10216
     10218     10217     10219     10221     10220     10222     10224     10223     10225
     10227     10226     10228     10230     10229     10231     10233     10232     10234
     10236     10235     10237     10239     10238     10240     10242     10241     10243
     10245     10244     10246     10248     10247     10249     10251     10250     10252
     10254     10253     10255     10257     10256     10258     10260     10259     10261
     10263     10262     10264     10266     10265     10267     10269     10268     10270
     10272     10271     10273     10275     10274     10276     10278     10277     10279
     10281     10280     10282     10284     10283     10285     10287     10286     10288
     10290     10289     10291     10293     10292     10294     10296     10295     10297
     10299     10298     10300     10302     10301     10303     10305     10304     10306
     10308     10307     10309     10311     10310     10312     10314     10313     10315
     10317     10316     10318     10320     10319     10321     10323     10322     10324
     10326     10325     10327     10329     10328     10330     10332     10331     10333
     10335     10334     10336     10338     10337     10339     10341     10340     10342
     10344     10343     10345     10347     10346     10348     10350     10349     10351
     10353     10352     10354     10356     10355     10357     10359     10358     10360
     10362     10361     10363     10365     10364     10366     10368     10367     10369
     10371     10370     10372     10374     10373     10375     10377     10376     10378
     10380     10379     10381     10383     10382     10384     10386     10385     10387
     10389     10388     10390     10392     10391     10393     10395     10394     10396
     10398     10397     10399     10401     10400     10402     10404     10403     10405
     10407     10406     10408     10410     10409     10411     10413     10412     10414
     10416     10415     10417     10419     10418     10420     10422     10421     10423
     10425     10424     10426     10428     10427     10429     10431     10430     10432
     10434     10433     10435     10437     10436     10438     10440     10439     10441
     10443     10442     10444     10446     10445     10447     10449     10448     10450
     10452     10451     10453     10455     10454     10456     10458     10457     10459
     10461     10460     10462     10464     10463     10465     10467     10466     10468
     10470     10469     10471     10473     10472     10474     10476     10475     10477
     10479     10478     10480     10482     10481     10483     10485     10484     10486
     10488     10487     10489     10491     10490     10492     10494     10493     10495
     10497     10496     10498     10500     10499     10501     10503     10502     10504
     10506     10505     10507     10509     10508     10510     10512     10511     10513
     10515     10514     10516     10518     10517     10519     10521     10520     10522
     10524     10523     10525     10527     10526     10528     10530     10529     10531
     10533     10532     10534     10536     10535     10537     10539     10538     10540
     10542     10541     10543     10545     10544     10546     10548     10547     10549
     10551     10550     10552     10554     10553     10555     10557     10556     10558
     10560     10559     10561     10563     10562     10564     10566     10565     10567
     10569     10568     10570     10572     10571     10573     10575     10574     10576
     10578     10577     10579     10581     10580     10582     10584     10583     10585
     10587     10586     10588     10590     10589     10591     10593     10592     10594
     10596     10595     10597     10599     10598     10600     10602     10601     10603
     10605     10604     10606     10608     10607     10609     10611     10610     10612
     10614     10613     10615     10617     10616     10618     10620     10619     10621
     10623     10622     10624     10626     10625     10627     10629     10628     10630
     10632     10631     10633     10635     10634     10636     10638     10637     10639
     10641     10640     10642     10644     10643     10645     10647     10646     10648
     10650     10649     10651     10653     10652     10654     10656     10655     10657
     10659     10658     10660     10662     10661     10663     10665     10664     10666
     10668     10667     10669     10671     10670     10672     10674     10673     10675
     10677     10676     10678     10680     10679     10681     10683     10682     10684
     10686     10685     10687     10689     10688     10690     10692     10691     10693
     10695     10694     10696     10698     10697     10699     10701     10700     10702
     10704     10703     10705     10707     10706     10708     10710     10709     10711
     10713     10712     10714     10716     10715     10717     10719     10718     10720
     10722     10721     10723     10725     10724     10726     10728     10727     10729
     10731     10730     10732     10734     10733     10735     10737     10736     10738
     10740     10739     10741     10743     10742     10744     10746     10745     10747
     10749     10748     10750     10752     10751     10753     10755     10754     10756
     10758     10757     10759     10761     10760     10762     10764     10763     10765
     10767     10766     10768     10770     10769     10771     10773     10772     10774
     10776     10775     10777     10779     10778     10780     10782     10781     10783
     10785     10784     10786     10788     10787     10789     10791     10790     10792
     10794     10793     10795     10797     10796     10798     10800     10799     10801
     10803     10802     10804     10806     10805     10807     10809     10808     10810
     10812     10811     10813     10815     10814     10816     10818     10817     10819
     10821     10820     10822     10824     10823     10825     10827     10826     10828
     10830     10829     10831     10833     10832     10834     10836     10835     10837
     10839     10838     10840     10842     10841     10843     10845     10844     10846
     10848     10847     10849     10851     10850     10852     10854     10853     10855
     10857     10856     10858     10860     10859     10861     10863     10862     10864
     10866     10865     10867     10869     10868     10870     10872     10871     10873
     10875     10874     10876     10878     10877     10879     10881     10880     10882
     10884     10883     10885     10887     10886     10888     10890     10889     10891
     10893     10892     10894     10896     10895     10897     10899     10898     10900
     10902     10901     10903     10905     10904     10906     10908     10907     10909
     10911     10910     10912     10914     10913     10915     10917     10916     10918
     10920     10919     10921     10923     10922     10924     10926     10925     10927
     10929     10928     10930     10932     10931     10933     10935     10934     10936
     10938     10937     10939     10941     10940     10942     10944     10943     10945
     10947     10946     10948     10950     10949     10951     10953     10952     10954
     10956     10955     10957     10959     10958     10960     10962     10961     10963
     10965     10964     10966     10968     10967     10969     10971     10970     10972
     10974     10973     10975     10977     10976     10978     10980     10979     10981
     10983     10982     10984     10986     10985     10987     10989     10988     10990
     10992     10991     10993     10995     10994     10996     10998     10997     10999
     11001     11000     11002     11004     11003     11005     11007     11006     11008
     11010     11009     11011     11013     11012     11014     11016     11015     11017
     11019     11018     11020     11022     11021     11023     11025     11024     11026
     11028     11027     11029     11031     11030     11032     11034     11033     11035
     11037     11036     11038     11040     11039     11041     11043     11042     11044
     11046     11045     11047     11049     11048     11050     11052     11051     11053
     11055     11054     11056     11058     11057     11059     11061     11060     11062
     11064     11063     11065     11067     11066     11068     11070     11069     11071
     11073     11072     11074     11076     11075     11077     11079     11078     11080
     11082     11081     11083     11085     11084     11086     11088     11087     11089
     11091     11090     11092     11094     11093     11095     11097     11096     11098
     11100     11099     11101     11103     11102     11104     11106     11105     11107
     11109     11108     11110     11112     11111     11113     11115     11114     11116
     11118     11117     11119     11121     11120     11122     11124     11123     11125
     11127     11126     11128     11130     11129     11131     11133     11132     11134
     11136     11135     11137     11139     11138     11140     11142     11141     11143
     11145     11144     11146     11148     11147     11149     11151     11150     11152
     11154     11153     11155     11157     11156     11158     11160     11159     11161
     11163     11162     11164     11166     11165     11167     11169     11168     11170
     11172     11171     11173     11175     11174     11176     11178     11177     11179
     11181     11180     11182     11184     11183     11185     11187     11186     11188
     11190     11189     11191     11193     11192     11194     11196     11195     11197
     11199     11198     11200     11202     11201     11203     11205     11204     11206
     11208     11207     11209     11211     11210     11212     11214     11213     11215
     11217     11216     11218     11220     11219     11221     11223     11222     11224
     11226     11225     11227     11229     11228     11230     11232     11231     11233
     11235     11234     11236     11238     11237     11239     11241     11240     11242
     11244     11243     11245     11247     11246     11248     11250     11249     11251
     11253     11252     11254     11256     11255     11257     11259     11258     11260
     11262     11261     11263     11265     11264     11266     11268     11267     11269
     11271     11270     11272     11274     11273     11275     11277     11276     11278
     11280     11279     11281     11283     11282     11284     11286     11285     11287
     11289     11288     11290     11292     11291     11293     11295     11294     11296
     11298     11297     11299     11301     11300     11302     11304     11303     11305
     11307     11306     11308     11310     11309     11311     11313     11312     11314
     11316     11315     11317     11319     11318     11320     11322     11321     11323
     11325     11324     11326     11328     11327     11329     11331     11330     11332
     11334     11333     11335     11337     11336     11338     11340     11339     11341
     11343     11342     11344     11346     11345     11347     11349     11348     11350
     11352     11351     11353     11355     11354     11356     11358     11357     11359
     11361     11360     11362     11364     11363     11365     11367     11366     11368
     11370     11369     11371     11373     11372     11374     11376     11375     11377
     11379     11378     11380     11382     11381     11383     11385     11384     11386
     11388     11387     11389     11391     11390     11392     11394     11393     11395
     11397     11396     11398     11400     11399     11401     11403     11402     11404
     11406     11405     11407     11409     11408     11410     11412     11411     11413
     11415     11414     11416     11418     11417     11419     11421     11420     11422
     11424     11423     11425     11427     11426     11428     11430     11429     11431
     11433     11432     11434     11436     11435     11437     11439     11438     11440
     11442     11441     11443     11445     11444     11446     11448     11447     11449
     11451     11450     11452     11454     11453     11455     11457     11456     11458
     11460     11459     11461     11463     11462     11464     11466     11465     11467
     11469     11468     11470     11472     11471     11473     11475     11474     11476
     11478     11477     11479     11481     11480     11482     11484     11483     11485
     11487     11486     11488     11490     11489     11491     11493     11492     11494
     11496     11495     11497     11499     11498     11500     11502     11501     11503
     11505     11504     11506     11508     11507     11509     11511     11510     11512
     11514     11513     11515     11517     11516     11518     11520     11519     11521
     11523     11522     11524     11526     11525     11527     11529     11528     11530
     11532     11531     11533     11535     11534     11536     11538     11537     11539
     11541     11540     11542     11544     11543     11545     11547     11546     11548
     11550     11549     11551     11553     11552     11554     11556     11555     11557
     11559     11558     11560     11562     11561     11563     11565     11564     11566
     11568     11567     11569     11571     11570     11572     11574     11573     11575
     11577     11576     11578     11580     11579     11581     11583     11582     11584
     11586     11585     11587     11589     11588     11590     11592     11591     11593
     11595     11594     11596     11598     11597     11599     11601     11600     11602
     11604     11603     11605     11607     11606     11608     11610     11609     11611
     11613     11612     11614     11616     11615     11617     11619     11618     11620
     11622     11621     11623     11625     11624     11626     11628     11627     11629
     11631     11630     11632     11634     11633     11635     11637     11636     11638
     11640     11639     11641     11643     11642     11644     11646     11645     11647
     11649     11648     11650     11652     11651     11653     11655     11654     11656
     11658     11657     11659     11661     11660     11662     11664     11663     11665
     11667     11666     11668     11670     11669     11671     11673     11672     11674
     11676     11675     11677     11679     11678     11680     11682     11681     11683
     11685     11684     11686     11688     11687     11689     11691     11690     11692
     11694     11693     11695     11697     11696     11698     11700     11699     11701
     11703     11702     11704     11706     11705     11707     11709     11708     11710
     11712     11711     11713     11715     11714     11716     11718     11717     11719
     11721     11720     11722     11724     11723     11725     11727     11726     11728
     11730     11729     11731     11733     11732     11734     11736     11735     11737
     11739     11738     11740     11742     11741     11743     11745     11744     11746
     11748     11747     11749     11751     11750     11752     11754     11753     11755
     11757     11756     11758     11760     11759     11761     11763     11762     11764
     11766     11765     11767     11769     11768     11770     11772     11771     11773
     11775     11774     11776     11778     11777     11779     11781     11780     11782
     11784     11783     11785     11787     11786     11788     11790     11789     11791
     11793     11792     11794     11796     11795     11797     11799     11798     11800
     11802     11801     11803     11805     11804     11806     11808     11807     11809
     11811     11810     11812     11814     11813     11815     11817     11816     11818
     11820     11819     11821     11823     11822     11824     11826     11825     11827
     11829     11828     11830     11832     11831     11833     11835     11834     11836
     11838     11837     11839     11841     11840     11842     11844     11843     11845
     11847     11846     11848     11850     11849     11851     11853     11852     11854
     11856     11855     11857     11859     11858     11860     11862     11861     11863
     11865     11864     11866     11868     11867     11869     11871     11870     11872
     11874     11873     11875     11877     11876     11878     11880     11879     11881
     11883     11882     11884     11886     11885     11887     11889     11888     11890
     11892     11891     11893     11895     11894     11896     11898     11897     11899
     11901     11900     11902     11904     11903     11905     11907     11906     11908
     11910     11909     11911     11913     11912     11914     11916     11915     11917
     11919     11918     11920     11922     11921     11923     11925     11924     11926
     11928     11927     11929     11931     11930     11932     11934     11933     11935
     11937     11936     11938     11940     11939     11941     11943     11942     11944
     11946     11945     11947     11949     11948     11950     11952     11951     11953
     11955     11954     11956     11958     11957     11959     11961     11960     11962
     11964     11963     11965     11967     11966     11968     11970     11969     11971
     11973     11972     11974     11976     11975     11977     11979     11978     11980
     11982     11981     11983     11985     11984     11986     11988     11987     11989
     11991     11990     11992     11994     11993     11995     11997     11996     11998
     12000     11999     12001     12003     12002     12004     12006     12005     12007
     12009     12008     12010     12012     12011     12013     12015     12014     12016
     12018     12017     12019     12021     12020     12022     12024     12023     12025
     12027     12026     12028     12030     12029     12031     12033     12032     12034
     12036     12035     12037     12039     12038     12040     12042     12041     12043
     12045     12044     12046     12048     12047     12049     12051     12050     12052
     12054     12053     12055     12057     12056     12058     12060     12059     12061
     12063     12062     12064     12066     12065     12067     12069     12068     12070
     12072     12071     12073     12075     12074     12076     12078     12077     12079
     12081     12080     12082     12084     12083     12085     12087     12086     12088
     12090     12089     12091     12093     12092     12094     12096     12095     12097
     12099     12098     12100     12102     12101     12103     12105     12104     12106
     12108     12107     12109     12111     12110     12112     12114     12113     12115
     12117     12116     12118     12120     12119     12121     12123     12122     12124
     12126     12125     12127     12129     12128     12130     12132     12131     12133
     12135     12134     12136     12138     12137     12139     12141     12140     12142
     12144     12143     12145     12147     12146     12148     12150     12149     12151
     12153     12152     12154     12156     12155     12157     12159     12158     12160
     12162     12161     12163     12165     12164     12166     12168     12167     12169
     12171     12170     12172     12174     12173     12175     12177     12176     12178
     12180     12179     12181     12183     12182     12184     12186     12185     12187
     12189     12188     12190     12192     12191     12193     12195     12194     12196
     12198     12197     12199     12201     12200     12202     12204     12203     12205
     12207     12206     12208     12210     12209     12211     12213     12212     12214
     12216     12215     12217     12219     12218     12220     12222     12221     12223
     12225     12224     12226     12228     12227     12229     12231     12230     12232
     12234     12233     12235     12237     12236     12238     12240     12239     12241
     12243     12242     12244     12246     12245     12247     12249     12248     12250
     12252     12251     12253     12255     12254     12256     12258     12257     12259
     12261     12260     12262     12264     12263     12265     12267     12266     12268
     12270     12269     12271     12273     12272     12274     12276     12275     12277
     12279     12278     12280     12282     12281     12283     12285     12284     12286
     12288     12287     12289     12291     12290     12292     12294     12293     12295
     12297     12296     12298     12300     12299     12301     12303     12302     12304
     12306     12305     12307     12309     12308     12310     12312     12311     12313
     12315     12314     12316     12318     12317     12319     12321     12320     12322
     12324     12323     12325     12327     12326     12328     12330     12329     12331
     12333     12332     12334     12336     12335     12337     12339     12338     12340
     12342     12341     12343     12345     12344     12346     12348     12347     12349
     12351     12350     12352     12354     12353     12355     12357     12356     12358
     12360     12359     12361     12363     12362     12364     12366     12365     12367
     12369     12368     12370     12372     12371     12373     12375     12374     12376
     12378     12377     12379     12381     12380     12382     12384     12383     12385
     12387     12386     12388     12390     12389     12391     12393     12392     12394
     12396     12395     12397     12399     12398     12400     12402     12401     12403
     12405     12404     12406     12408     12407     12409     12411     12410     12412
     12414     12413     12415     12417     12416     12418     12420     12419     12421
     12423     12422     12424     12426     12425     12427     12429     12428     12430
     12432     12431     12433     12435     12434     12436     12438     12437     12439
     12441     12440     12442     12444     12443     12445     12447     12446     12448
     12450     12449     12451     12453     12452     12454     12456     12455     12457
     12459     12458     12460     12462     12461     12463     12465     12464     12466
     12468     12467     12469     12471     12470     12472     12474     12473     12475
     12477     12476     12478     12480     12479     12481     12483     12482     12484
     12486     12485     12487     12489     12488     12490     12492     12491     12493
     12495     12494     12496     12498     12497     12499     12501     12500     12502
     12504     12503     12505     12507     12506     12508     12510     12509     12511
     12513     12512     12514     12516     12515     12517     12519     12518     12520
     12522     12521     12523     12525     12524     12526     12528     12527     12529
     12531     12530     12532     12534     12533     12535     12537     12536     12538
     12540     12539     12541     12543     12542     12544     12546     12545     12547
     12549     12548     12550     12552     12551     12553     12555     12554     12556
     12558     12557     12559     12561     12560     12562     12564     12563     12565
     12567     12566     12568     12570     12569     12571     12573     12572     12574
     12576     12575     12577     12579     12578     12580     12582     12581     12583
     12585     12584     12586     12588     12587     12589     12591     12590     12592
     12594     12593     12595     12597     12596     12598     12600     12599     12601
     12603     12602     12604     12606     12605     12607     12609     12608     12610
     12612     12611     12613     12615     12614     12616     12618     12617     12619
     12621     12620     12622     12624     12623     12625     12627     12626     12628
     12630     12629     12631     12633     12632     12634     12636     12635     12637
     12639     12638     12640     12642     12641     12643     12645     12644     12646
     12648     12647     12649     12651     12650     12652     12654     12653     12655
     12657     12656     12658     12660     12659     12661     12663     12662     12664
     12666     12665     12667     12669     12668     12670     12672     12671     12673
     12675     12674     12676     12678     12677     12679     12681     12680     12682
     12684     12683     12685     12687     12686     12688     12690     12689     12691
     12693     12692     12694     12696     12695     12697     12699     12698     12700
     12702     12701     12703     12705     12704     12706     12708     12707     12709
     12711     12710     12712     12714     12713     12715     12717     12716     12718
     12720     12719     12721     12723     12722     12724     12726     12725     12727
     12729     12728     12730     12732     12731     12733     12735     12734     12736
     12738     12737     12739     12741     12740     12742     12744     12743     12745
     12747     12746     12748     12750     12749     12751     12753     12752     12754
     12756     12755     12757     12759     12758     12760     12762     12761     12763
     12765     12764     12766     12768     12767     12769     12771     12770     12772
     12774     12773     12775     12777     12776     12778     12780     12779     12781
     12783     12782     12784     12786     12785     12787     12789     12788     12790
     12792     12791     12793     12795     12794     12796     12798     12797     12799
     12801     12800     12802     12804     12803     12805     12807     12806     12808
     12810     12809     12811     12813     12812     12814     12816     12815     12817
     12819     12818     12820     12822     12821     12823     12825     12824     12826
     12828     12827     12829     12831     12830     12832     12834     12833     12835
     12837     12836     12838     12840     12839     12841     12843     12842     12844
     12846     12845     12847     12849     12848     12850     12852     12851     12853
     12855     12854     12856     12858     12857     12859     12861     12860     12862
     12864     12863     12865     12867     12866     12868     12870     12869     12871
     12873     12872     12874     12876     12875     12877     12879     12878     12880
     12882     12881     12883     12885     12884     12886     12888     12887     12889
     12891     12890     12892     12894     12893     12895     12897     12896     12898
     12900     12899     12901     12903     12902     12904     12906     12905     12907
     12909     12908     12910     12912     12911     12913     12915     12914     12916
     12918     12917     12919     12921     12920     12922     12924     12923     12925
     12927     12926     12928     12930     12929     12931     12933     12932     12934
     12936     12935     12937     12939     12938     12940     12942     12941     12943
     12945     12944     12946     12948     12947     12949     12951     12950     12952
     12954     12953     12955     12957     12956     12958     12960     12959     12961
     12963     12962     12964     12966     12965     12967     12969     12968     12970
     12972     12971     12973     12975     12974     12976     12978     12977     12979
     12981     12980     12982     12984     12983     12985     12987     12986     12988
     12990     12989     12991     12993     12992     12994     12996     12995     12997
     12999     12998     13000     13002     13001     13003     13005     13004     13006
     13008     13007     13009     13011     13010     13012     13014     13013     13015
     13017     13016     13018     13020     13019     13021     13023     13022     13024
     13026     13025     13027     13029     13028     13030     13032     13031     13033
     13035     13034     13036     13038     13037     13039     13041     13040     13042
     13044     13043     13045     13047     13046     13048     13050     13049     13051
     13053     13052     13054     13056     13055     13057     13059     13058     13060
     13062     13061     13063     13065     13064     13066     13068     13067     13069
     13071     13070     13072     13074     13073     13075     13077     13076     13078
     13080     13079     13081     13083     13082     13084     13086     13085     13087
     13089     13088     13090     13092     13091     13093     13095     13094     13096
     13098     13097     13099     13101     13100     13102     13104     13103     13105
     13107     13106     13108     13110     13109     13111     13113     13112     13114
     13116     13115     13117     13119     13118     13120     13122     13121     13123
     13125     13124     13126     13128     13127     13129     13131     13130     13132
     13134     13133     13135     13137     13136     13138     13140     13139     13141
     13143     13142     13144     13146     13145     13147     13149     13148     13150
     13152     13151     13153     13155     13154     13156     13158     13157     13159
     13161     13160     13162     13164     13163     13165     13167     13166     13168
     13170     13169     13171     13173     13172     13174     13176     13175     13177
     13179     13178     13180     13182     13181     13183     13185     13184     13186
     13188     13187     13189     13191     13190     13192     13194     13193     13195
     13197     13196     13198     13200     13199     13201     13203     13202     13204
     13206     13205     13207     13209     13208     13210     13212     13211     13213
     13215     13214     13216     13218     13217     13219     13221     13220     13222
     13224     13223     13225     13227     13226     13228     13230     13229     13231
     13233     13232     13234     13236     13235     13237     13239     13238     13240
     13242     13241     13243     13245     13244     13246     13248     13247     13249
     13251     13250     13252     13254     13253     13255     13257     13256     13258
     13260     13259     13261     13263     13262     13264     13266     13265     13267
     13269     13268     13270     13272     13271     13273     13275     13274     13276
     13278     13277     13279     13281     13280     13282     13284     13283     13285
     13287     13286     13288     13290     13289     13291     13293     13292     13294
     13296     13295     13297     13299     13298     13300     13302     13301     13303
     13305     13304     13306     13308     13307     13309     13311     13310     13312
     13314     13313     13315     13317     13316     13318     13320     13319     13321
     13323     13322     13324     13326     13325     13327     13329     13328     13330
     13332     13331     13333     13335     13334     13336     13338     13337     13339
     13341     13340     13342     13344     13343     13345     13347     13346     13348
     13350     13349     13351     13353     13352     13354     13356     13355     13357
     13359     13358     13360     13362     13361     13363     13365     13364     13366
     13368     13367     13369     13371     13370     13372     13374     13373     13375
     13377     13376     13378     13380     13379     13381     13383     13382     13384
     13386     13385     13387     13389     13388     13390     13392     13391     13393
     13395     13394     13396     13398     13397     13399     13401     13400     13402
     13404     13403     13405     13407     13406     13408     13410     13409     13411
     13413     13412     13414     13416     13415     13417     13419     13418     13420
     13422     13421     13423     13425     13424     13426     13428     13427     13429
     13431     13430     13432     13434     13433     13435     13437     13436     13438
     13440     13439     13441     13443     13442     13444     13446     13445     13447
     13449     13448     13450     13452     13451     13453     13455     13454     13456
     13458     13457     13459     13461     13460     13462     13464     13463     13465
     13467     13466     13468     13470     13469     13471     13473     13472     13474
     13476     13475     13477     13479     13478     13480     13482     13481     13483
     13485     13484     13486     13488     13487     13489     13491     13490     13492
     13494     13493     13495     13497     13496     13498     13500     13499     13501
     13503     13502     13504     13506     13505     13507     13509     13508     13510
     13512     13511     13513     13515     13514     13516     13518     13517     13519
     13521     13520     13522     13524     13523     13525     13527     13526     13528
     13530     13529     13531     13533     13532     13534     13536     13535     13537
     13539     13538     13540     13542     13541     13543     13545     13544     13546
     13548     13547     13549     13551     13550     13552     13554     13553     13555
     13557     13556     13558     13560     13559     13561     13563     13562     13564
     13566     13565     13567     13569     13568     13570     13572     13571     13573
     13575     13574     13576     13578     13577     13579     13581     13580     13582
     13584     13583     13585     13587     13586     13588     13590     13589     13591
     13593     13592     13594     13596     13595     13597     13599     13598     13600
     13602     13601     13603     13605     13604     13606     13608     13607     13609
     13611     13610     13612     13614     13613     13615     13617     13616     13618
     13620     13619     13621     13623     13622     13624     13626     13625     13627
     13629     13628     13630     13632     13631     13633     13635     13634     13636
     13638     13637     13639     13641     13640     13642     13644     13643     13645
     13647     13646     13648     13650     13649     13651     13653     13652     13654
     13656     13655     13657     13659     13658     13660     13662     13661     13663
     13665     13664     13666     13668     13667     13669     13671     13670     13672
     13674     13673     13675     13677     13676     13678     13680     13679     13681
     13683     13682     13684     13686     13685     13687     13689     13688     13690
     13692     13691     13693     13695     13694     13696     13698     13697     13699
     13701     13700     13702     13704     13703     13705     13707     13706     13708
     13710     13709     13711     13713     13712     13714     13716     13715     13717
     13719     13718     13720     13722     13721     13723     13725     13724     13726
     13728     13727     13729     13731     13730     13732     13734     13733     13735
     13737     13736     13738     13740     13739     13741     13743     13742     13744
     13746     13745     13747     13749     13748     13750     13752     13751     13753
     13755     13754     13756     13758     13757     13759     13761     13760     13762
     13764     13763     13765     13767     13766     13768     13770     13769     13771
     13773     13772     13774     13776     13775     13777     13779     13778     13780
     13782     13781     13783     13785     13784     13786     13788     13787     13789
     13791     13790     13792     13794     13793     13795     13797     13796     13798
     13800     13799     13801     13803     13802     13804     13806     13805     13807
     13809     13808     13810     13812     13811     13813     13815     13814     13816
     13818     13817     13819     13821     13820     13822     13824     13823     13825
     13827     13826     13828     13830     13829     13831     13833     13832     13834
     13836     13835     13837     13839     13838     13840     13842     13841     13843
     13845     13844     13846     13848     13847     13849     13851     13850     13852
     13854     13853     13855     13857     13856     13858     13860     13859     13861
     13863     13862     13864     13866     13865     13867     13869     13868     13870
     13872     13871     13873     13875     13874     13876     13878     13877     13879
     13881     13880     13882     13884     13883     13885     13887     13886     13888
     13890     13889     13891     13893     13892     13894     13896     13895     13897
     13899     13898     13900     13902     13901     13903     13905     13904     13906
     13908     13907     13909     13911     13910     13912     13914     13913     13915
     13917     13916     13918     13920     13919     13921     13923     13922     13924
     13926     13925     13927     13929     13928     13930     13932     13931     13933
     13935     13934     13936     13938     13937     13939     13941     13940     13942
     13944     13943     13945     13947     13946     13948     13950     13949     13951
     13953     13952     13954     13956     13955     13957     13959     13958     13960
     13962     13961     13963     13965     13964     13966     13968     13967     13969
     13971     13970     13972     13974     13973     13975     13977     13976     13978
     13980     13979     13981     13983     13982     13984     13986     13985     13987
     13989     13988     13990     13992     13991     13993     13995     13994     13996
     13998     13997     13999     14001     14000     14002     14004     14003     14005
     14007     14006     14008     14010     14009     14011     14013     14012     14014
     14016     14015     14017     14019     14018     14020     14022     14021     14023
     14025     14024     14026     14028     14027     14029     14031     14030     14032
     14034     14033     14035     14037     14036     14038     14040     14039     14041
     14043     14042     14044     14046     14045     14047     14049     14048     14050
     14052     14051     14053     14055     14054     14056     14058     14057     14059
     14061     14060     14062     14064     14063     14065     14067     14066     14068
     14070     14069     14071     14073     14072     14074     14076     14075     14077
     14079     14078     14080     14082     14081     14083     14085     14084     14086
     14088     14087     14089     14091     14090     14092     14094     14093     14095
     14097     14096     14098     14100     14099     14101     14103     14102     14104
     14106     14105     14107     14109     14108     14110     14112     14111     14113
     14115     14114     14116     14118     14117     14119     14121     14120     14122
     14124     14123     14125     14127     14126     14128     14130     14129     14131
     14133     14132     14134     14136     14135     14137     14139     14138     14140
     14142     14141     14143     14145     14144     14146     14148     14147     14149
     14151     14150     14152     14154     14153     14155     14157     14156     14158
     14160     14159     14161     14163     14162     14164     14166     14165     14167
     14169     14168     14170     14172     14171     14173     14175     14174     14176
     14178     14177     14179     14181     14180     14182     14184     14183     14185
     14187     14186     14188     14190     14189     14191     14193     14192     14194
     14196     14195     14197     14199     14198     14200     14202     14201     14203
     14205     14204     14206     14208     14207     14209     14211     14210     14212
     14214     14213     14215     14217     14216     14218     14220     14219     14221
     14223     14222     14224     14226     14225     14227     14229     14228     14230
     14232     14231     14233     14235     14234     14236     14238     14237     14239
     14241     14240     14242     14244     14243     14245     14247     14246     14248
     14250     14249     14251     14253     14252     14254     14256     14255     14257
     14259     14258     14260     14262     14261     14263     14265     14264     14266
     14268     14267     14269     14271     14270     14272     14274     14273     14275
     14277     14276     14278     14280     14279     14281     14283     14282     14284
     14286     14285     14287     14289     14288     14290     14292     14291     14293
     14295     14294     14296     14298     14297     14299     14301     14300     14302
     14304     14303     14305     14307     14306     14308     14310     14309     14311
     14313     14312     14314     14316     14315     14317     14319     14318     14320
     14322     14321     14323     14325     14324     14326     14328     14327     14329
     14331     14330     14332     14334     14333     14335     14337     14336     14338
     14340     14339     14341     14343     14342     14344     14346     14345     14347
     14349     14348     14350     14352     14351     14353     14355     14354     14356
     14358     14357     14359     14361     14360     14362     14364     14363     14365
     14367     14366     14368     14370     14369     14371     14373     14372     14374
     14376     14375     14377     14379     14378     14380     14382     14381     14383
     14385     14384     14386     14388     14387     14389     14391     14390     14392
     14394     14393     14395     14397     14396     14398     14400     14399     14401
     14403     14402     14404     14406     14405     14407     14409     14408     14410
     14412     14411     14413     14415     14414     14416     14418     14417     14419
     14421     14420     14422     14424     14423     14425     14427     14426     14428
     14430     14429     14431     14433     14432     14434     14436     14435     14437
     14439     14438     14440     14442     14441     14443     14445     14444     14446
     14448     14447     14449     14451     14450     14452     14454     14453     14455
     14457     14456     14458     14460     14459     14461     14463     14462     14464
     14466     14465     14467     14469     14468     14470     14472     14471     14473
     14475     14474     14476     14478     14477     14479     14481     14480     14482
     14484     14483     14485     14487     14486     14488     14490     14489     14491
     14493     14492     14494     14496     14495     14497     14499     14498     14500
     14502     14501     14503     14505     14504     14506     14508     14507     14509
     14511     14510     14512     14514     14513     14515     14517     14516     14518
     14520     14519     14521     14523     14522     14524     14526     14525     14527
     14529     14528     14530     14532     14531     14533     14535     14534     14536
     14538     14537     14539     14541     14540     14542     14544     14543     14545
     14547     14546     14548     14550     14549     14551     14553     14552     14554
     14556     14555     14557     14559     14558     14560     14562     14561     14563
     14565     14564     14566     14568     14567     14569     14571     14570     14572
     14574     14573     14575     14577     14576     14578     14580     14579     14581
     14583     14582     14584     14586     14585     14587     14589     14588     14590
     14592     14591     14593     14595     14594     14596     14598     14597     14599
     14601     14600     14602     14604     14603     14605     14607     14606     14608
     14610     14609     14611     14613     14612     14614     14616     14615     14617
     14619     14618     14620     14622     14621     14623     14625     14624     14626
     14628     14627     14629     14631     14630     14632     14634     14633     14635
     14637     14636     14638     14640     14639     14641     14643     14642     14644
     14646     14645     14647     14649     14648     14650     14652     14651     14653
     14655     14654     14656     14658     14657     14659     14661     14660     14662
     14664     14663     14665     14667     14666     14668     14670     14669     14671
     14673     14672     14674     14676     14675     14677     14679     14678     14680
     14682     14681     14683     14685     14684     14686     14688     14687     14689
     14691     14690     14692     14694     14693     14695     14697     14696     14698
     14700     14699     14701     14703     14702     14704     14706     14705     14707
     14709     14708     14710     14712     14711     14713     14715     14714     14716
     14718     14717     14719     14721     14720     14722     14724     14723     14725
     14727     14726     14728     14730     14729     14731     14733     14732     14734
     14736     14735     14737     14739     14738     14740     14742     14741     14743
     14745     14744     14746     14748     14747     14749     14751     14750     14752
     14754     14753     14755     14757     14756     14758     14760     14759     14761
     14763     14762     14764     14766     14765     14767     14769     14768     14770
     14772     14771     14773     14775     14774     14776     14778     14777     14779
     14781     14780     14782     14784     14783     14785     14787     14786     14788
     14790     14789     14791     14793     14792     14794     14796     14795     14797
     14799     14798     14800     14802     14801     14803     14805     14804     14806
     14808     14807     14809     14811     14810     14812     14814     14813     14815
     14817     14816     14818     14820     14819     14821     14823     14822     14824
     14826     14825     14827     14829     14828     14830     14832     14831     14833
     14835     14834     14836     14838     14837     14839     14841     14840     14842
     14844     14843     14845     14847     14846     14848     14850     14849     14851
     14853     14852     14854     14856     14855     14857     14859     14858     14860
     14862     14861     14863     14865     14864     14866     14868     14867     14869
     14871     14870     14872     14874     14873     14875     14877     14876     14878
     14880     14879     14881     14883     14882     14884     14886     14885     14887
     14889     14888     14890     14892     14891     14893     14895     14894     14896
     14898     14897     14899     14901     14900     14902     14904     14903     14905
     14907     14906     14908     14910     14909     14911     14913     14912     14914
     14916     14915     14917     14919     14918     14920     14922     14921     14923
     14925     14924     14926     14928     14927     14929     14931     14930     14932
     14934     14933     14935     14937     14936     14938     14940     14939     14941
     14943     14942     14944     14946     14945     14947     14949     14948     14950
     14952     14951     14953     14955     14954     14956     14958     14957     14959
     14961     14960     14962     14964     14963     14965     14967     14966     14968
     14970     14969     14971     14973     14972     14974     14976     14975     14977
     14979     14978     14980     14982     14981     14983     14985     14984     14986
     14988     14987     14989     14991     14990     14992     14994     14993     14995
     14997     14996     14998     15000     14999     15001     15003     15002     15004
     15006     15005     15007     15009     15008     15010     15012     15011     15013
     15015     15014     15016     15018     15017     15019     15021     15020     15022
     15024     15023     15025     15027     15026     15028     15030     15029     15031
     15033     15032     15034     15036     15035     15037     15039     15038     15040
     15042     15041     15043     15045     15044     15046     15048     15047     15049
     15051     15050     15052     15054     15053     15055     15057     15056     15058
     15060     15059     15061     15063     15062     15064     15066     15065     15067
     15069     15068     15070     15072     15071     15073     15075     15074     15076
     15078     15077     15079     15081     15080     15082     15084     15083     15085
     15087     15086     15088     15090     15089     15091     15093     15092     15094
     15096     15095     15097     15099     15098     15100     15102     15101     15103
     15105     15104     15106     15108     15107     15109     15111     15110     15112
     15114     15113     15115     15117     15116     15118     15120     15119     15121
     15123     15122     15124     15126     15125     15127     15129     15128     15130
     15132     15131     15133     15135     15134     15136     15138     15137     15139
     15141     15140     15142     15144     15143     15145     15147     15146     15148
     15150     15149     15151     15153     15152     15154     15156     15155     15157
     15159     15158     15160     15162     15161     15163     15165     15164     15166
     15168     15167     15169     15171     15170     15172     15174     15173     15175
     15177     15176     15178     15180     15179     15181     15183     15182     15184
     15186     15185     15187     15189     15188     15190     15192     15191     15193
     15195     15194     15196     15198     15197     15199     15201     15200     15202
     15204     15203     15205     15207     15206     15208     15210     15209     15211
     15213     15212     15214     15216     15215     15217     15219     15218     15220
     15222     15221     15223     15225     15224     15226     15228     15227     15229
     15231     15230     15232     15234     15233     15235     15237     15236     15238
     15240     15239     15241     15243     15242     15244     15246     15245     15247
     15249     15248     15250     15252     15251     15253     15255     15254     15256
     15258     15257     15259     15261     15260     15262     15264     15263     15265
     15267     15266     15268     15270     15269     15271     15273     15272     15274
     15276     15275     15277     15279     15278     15280     15282     15281     15283
     15285     15284     15286     15288     15287     15289     15291     15290     15292
     15294     15293     15295     15297     15296     15298     15300     15299     15301
     15303     15302     15304     15306     15305     15307     15309     15308     15310
     15312     15311     15313     15315     15314     15316     15318     15317     15319
     15321     15320     15322     15324     15323     15325     15327     15326     15328
     15330     15329     15331     15333     15332     15334     15336     15335     15337
     15339     15338     15340     15342     15341     15343     15345     15344     15346
     15348     15347     15349     15351     15350     15352     15354     15353     15355
     15357     15356     15358     15360     15359     15361     15363     15362     15364
     15366     15365     15367     15369     15368     15370     15372     15371     15373
     15375     15374     15376     15378     15377     15379     15381     15380     15382
     15384     15383     15385     15387     15386     15388     15390     15389     15391
     15393     15392     15394     15396     15395     15397     15399     15398     15400
     15402     15401     15403     15405     15404     15406     15408     15407     15409
     15411     15410     15412     15414     15413     15415     15417     15416     15418
     15420     15419     15421     15423     15422     15424     15426     15425     15427
     15429     15428     15430     15432     15431     15433     15435     15434     15436
     15438     15437     15439     15441     15440     15442     15444     15443     15445
     15447     15446     15448     15450     15449     15451     15453     15452     15454
     15456     15455     15457     15459     15458     15460     15462     15461     15463
     15465     15464     15466     15468     15467     15469     15471     15470     15472
     15474     15473     15475     15477     15476     15478     15480     15479     15481
     15483     15482     15484     15486     15485     15487     15489     15488     15490
     15492     15491     15493     15495     15494     15496     15498     15497     15499
     15501     15500     15502     15504     15503     15505     15507     15506     15508
     15510     15509     15511     15513     15512     15514     15516     15515     15517
     15519     15518     15520     15522     15521     15523     15525     15524     15526
     15528     15527     15529     15531     15530     15532     15534     15533     15535
     15537     15536     15538     15540     15539     15541     15543     15542     15544
     15546     15545     15547     15549     15548     15550     15552     15551     15553
     15555     15554     15556     15558     15557     15559     15561     15560     15562
     15564     15563     15565     15567     15566     15568     15570     15569     15571
     15573     15572     15574     15576     15575     15577     15579     15578     15580
     15582     15581     15583     15585     15584     15586     15588     15587     15589
     15591     15590     15592     15594     15593     15595     15597     15596     15598
     15600     15599     15601     15603     15602     15604     15606     15605     15607
     15609     15608     15610     15612     15611     15613     15615     15614     15616
     15618     15617     15619     15621     15620     15622     15624     15623     15625
     15627     15626     15628     15630     15629     15631     15633     15632     15634
     15636     15635     15637     15639     15638     15640     15642     15641     15643
     15645     15644     15646     15648     15647     15649     15651     15650     15652
     15654     15653     15655     15657     15656     15658     15660     15659     15661
     15663     15662     15664     15666     15665     15667     15669     15668     15670
     15672     15671     15673     15675     15674     15676     15678     15677     15679
     15681     15680     15682     15684     15683     15685     15687     15686     15688
     15690     15689     15691     15693     15692     15694     15696     15695     15697
     15699     15698     15700     15702     15701     15703     15705     15704     15706
     15708     15707     15709     15711     15710     15712     15714     15713     15715
     15717     15716     15718     15720     15719     15721     15723     15722     15724
     15726     15725     15727     15729     15728     15730     15732     15731     15733
     15735     15734     15736     15738     15737     15739     15741     15740     15742
     15744     15743     15745     15747     15746     15748     15750     15749     15751
     15753     15752     15754     15756     15755     15757     15759     15758     15760
     15762     15761     15763     15765     15764     15766     15768     15767     15769
     15771     15770     15772     15774     15773     15775     15777     15776     15778
     15780     15779     15781     15783     15782     15784     15786     15785     15787
     15789     15788     15790     15792     15791     15793     15795     15794     15796
     15798     15797     15799     15801     15800     15802     15804     15803     15805
     15807     15806     15808     15810     15809     15811     15813     15812     15814
     15816     15815     15817     15819     15818     15820     15822     15821     15823
     15825     15824     15826     15828     15827     15829     15831     15830     15832
     15834     15833     15835     15837     15836     15838     15840     15839     15841
     15843     15842     15844     15846     15845     15847     15849     15848     15850
     15852     15851     15853     15855     15854     15856     15858     15857     15859
     15861     15860     15862     15864     15863     15865     15867     15866     15868
     15870     15869     15871     15873     15872     15874     15876     15875     15877
     15879     15878     15880     15882     15881     15883     15885     15884     15886
     15888     15887     15889     15891     15890     15892     15894     15893     15895
     15897     15896     15898     15900     15899     15901     15903     15902     15904
     15906     15905     15907     15909     15908     15910     15912     15911     15913
     15915     15914     15916     15918     15917     15919     15921     15920     15922
     15924     15923     15925     15927     15926     15928     15930     15929     15931
     15933     15932     15934     15936     15935     15937     15939     15938     15940
     15942     15941     15943     15945     15944     15946     15948     15947     15949
     15951     15950     15952     15954     15953     15955     15957     15956     15958
     15960     15959     15961     15963     15962     15964     15966     15965     15967
     15969     15968     15970     15972     15971     15973     15975     15974     15976
     15978     15977     15979     15981     15980     15982     15984     15983     15985
     15987     15986     15988     15990     15989     15991     15993     15992     15994
     15996     15995     15997     15999     15998     16000     16002     16001     16003
     16005     16004     16006     16008     16007     16009     16011     16010     16012
     16014     16013     16015     16017     16016     16018     16020     16019     16021
     16023     16022     16024     16026     16025     16027     16029     16028     16030
     16032     16031     16033     16035     16034     16036     16038     16037     16039
     16041     16040     16042     16044     16043     16045     16047     16046     16048
     16050     16049     16051     16053     16052     16054     16056     16055     16057
     16059     16058     16060     16062     16061     16063     16065     16064     16066
     16068     16067     16069     16071     16070     16072     16074     16073     16075
     16077     16076     16078     16080     16079     16081     16083     16082     16084
     16086     16085     16087     16089     16088     16090     16092     16091     16093
     16095     16094     16096     16098     16097     16099     16101     16100     16102
     16104     16103     16105     16107     16106     16108     16110     16109     16111
     16113     16112     16114     16116     16115     16117     16119     16118     16120
     16122     16121     16123     16125     16124     16126     16128     16127     16129
     16131     16130     16132     16134     16133     16135     16137     16136     16138
     16140     16139     16141     16143     16142     16144     16146     16145     16147
     16149     16148     16150     16152     16151     16153     16155     16154     16156
     16158     16157     16159     16161     16160     16162     16164     16163     16165
     16167     16166     16168     16170     16169     16171     16173     16172     16174
     16176     16175     16177     16179     16178     16180     16182     16181     16183
     16185     16184     16186     16188     16187     16189     16191     16190     16192
     16194     16193     16195     16197     16196     16198     16200     16199     16201
     16203     16202     16204     16206     16205     16207     16209     16208     16210
     16212     16211     16213     16215     16214     16216     16218     16217     16219
     16221     16220     16222     16224     16223     16225     16227     16226     16228
     16230     16229     16231     16233     16232     16234     16236     16235     16237
     16239     16238     16240     16242     16241     16243     16245     16244     16246
     16248     16247     16249     16251     16250     16252     16254     16253     16255
     16257     16256     16258     16260     16259     16261     16263     16262     16264
     16266     16265     16267     16269     16268     16270     16272     16271     16273
     16275     16274     16276     16278     16277     16279     16281     16280     16282
     16284     16283     16285     16287     16286     16288     16290     16289     16291
     16293     16292     16294     16296     16295     16297     16299     16298     16300
     16302     16301     16303     16305     16304     16306     16308     16307     16309
     16311     16310     16312     16314     16313     16315     16317     16316     16318
     16320     16319     16321     16323     16322     16324     16326     16325     16327
     16329     16328     16330     16332     16331     16333     16335     16334     16336
     16338     16337     16339     16341     16340     16342     16344     16343     16345
     16347     16346     16348     16350     16349     16351     16353     16352     16354
     16356     16355     16357     16359     16358     16360     16362     16361     16363
     16365     16364     16366     16368     16367     16369     16371     16370     16372
     16374     16373     16375     16377     16376     16378     16380     16379     16381
     16383     16382     16384     16386     16385     16387     16389     16388     16390
     16392     16391     16393     16395     16394     16396     16398     16397     16399
     16401     16400     16402     16404     16403     16405     16407     16406     16408
     16410     16409     16411     16413     16412     16414     16416     16415     16417
     16419     16418     16420     16422     16421     16423     16425     16424     16426
     16428     16427     16429     16431     16430     16432     16434     16433     16435
     16437     16436     16438     16440     16439     16441     16443     16442     16444
     16446     16445     16447     16449     16448     16450     16452     16451     16453
     16455     16454     16456     16458     16457     16459     16461     16460     16462
     16464     16463     16465     16467     16466     16468     16470     16469     16471
     16473     16472     16474     16476     16475     16477     16479     16478     16480
     16482     16481     16483     16485     16484     16486     16488     16487     16489
     16491     16490     16492     16494     16493     16495     16497     16496     16498
     16500     16499     16501     16503     16502     16504     16506     16505     16507
     16509     16508     16510     16512     16511     16513     16515     16514     16516
     16518     16517     16519     16521     16520     16522     16524     16523     16525
     16527     16526     16528     16530     16529     16531     16533     16532     16534
     16536     16535     16537     16539     16538     16540     16542     16541     16543
     16545     16544     16546     16548     16547     16549     16551     16550     16552
     16554     16553     16555     16557     16556     16558     16560     16559     16561
     16563     16562     16564     16566     16565     16567     16569     16568     16570
     16572     16571     16573     16575     16574     16576     16578     16577     16579
     16581     16580     16582     16584     16583     16585     16587     16586     16588
     16590     16589     16591     16593     16592     16594     16596     16595     16597
     16599     16598     16600     16602     16601     16603     16605     16604     16606
     16608     16607     16609     16611     16610     16612     16614     16613     16615
     16617     16616     16618     16620     16619     16621     16623     16622     16624
     16626     16625     16627     16629     16628     16630     16632     16631     16633
     16635     16634     16636     16638     16637     16639     16641     16640     16642
     16644     16643     16645     16647     16646     16648     16650     16649     16651
     16653     16652     16654     16656     16655     16657     16659     16658     16660
     16662     16661     16663     16665     16664     16666     16668     16667     16669
     16671     16670     16672     16674     16673     16675     16677     16676     16678
     16680     16679     16681     16683     16682     16684     16686     16685     16687
     16689     16688     16690     16692     16691     16693     16695     16694     16696
     16698     16697     16699     16701     16700     16702     16704     16703     16705
     16707     16706     16708     16710     16709     16711     16713     16712     16714
     16716     16715     16717     16719     16718     16720     16722     16721     16723
     16725     16724     16726     16728     16727     16729     16731     16730     16732
     16734     16733     16735     16737     16736     16738     16740     16739     16741
     16743     16742     16744     16746     16745     16747     16749     16748     16750
     16752     16751     16753     16755     16754     16756     16758     16757     16759
     16761     16760     16762     16764     16763     16765     16767     16766     16768
     16770     16769     16771     16773     16772     16774     16776     16775     16777
     16779     16778     16780     16782     16781     16783     16785     16784     16786
     16788     16787     16789     16791     16790     16792     16794     16793     16795
     16797     16796     16798     16800     16799     16801     16803     16802     16804
     16806     16805     16807     16809     16808     16810     16812     16811     16813
     16815     16814     16816     16818     16817     16819     16821     16820     16822
     16824     16823     16825     16827     16826     16828     16830     16829     16831
     16833     16832     16834     16836     16835     16837     16839     16838     16840
     16842     16841     16843     16845     16844     16846     16848     16847     16849
     16851     16850     16852     16854     16853     16855     16857     16856     16858
     16860     16859     16861     16863     16862     16864     16866     16865     16867
     16869     16868     16870     16872     16871     16873     16875     16874     16876
     16878     16877     16879     16881     16880     16882     16884     16883     16885
     16887     16886     16888     16890     16889     16891     16893     16892     16894
     16896     16895     16897     16899     16898     16900     16902     16901     16903
     16905     16904     16906     16908     16907     16909     16911     16910     16912
     16914     16913     16915     16917     16916     16918     16920     16919     16921
     16923     16922     16924     16926     16925     16927     16929     16928     16930
     16932     16931     16933     16935     16934     16936     16938     16937     16939
     16941     16940     16942     16944     16943     16945     16947     16946     16948
     16950     16949     16951     16953     16952     16954     16956     16955     16957
     16959     16958     16960     16962     16961     16963     16965     16964     16966
     16968     16967     16969     16971     16970     16972     16974     16973     16975
     16977     16976     16978     16980     16979     16981     16983     16982     16984
     16986     16985     16987     16989     16988     16990     16992     16991     16993
     16995     16994     16996     16998     16997     16999     17001     17000     17002
     17004     17003     17005     17007     17006     17008     17010     17009     17011
     17013     17012     17014     17016     17015     17017     17019     17018     17020
     17022     17021     17023     17025     17024     17026     17028     17027     17029
     17031     17030     17032     17034     17033     17035     17037     17036     17038
     17040     17039     17041     17043     17042     17044     17046     17045     17047
     17049     17048     17050     17052     17051     17053     17055     17054     17056
     17058     17057     17059     17061     17060     17062     17064     17063     17065
     17067     17066     17068     17070     17069     17071     17073     17072     17074
     17076     17075     17077     17079     17078     17080     17082     17081     17083
     17085     17084     17086     17088     17087     17089     17091     17090     17092
     17094     17093     17095     17097     17096     17098     17100     17099     17101
     17103     17102     17104     17106     17105     17107     17109     17108     17110
     17112     17111     17113     17115     17114     17116     17118     17117     17119
     17121     17120     17122     17124     17123     17125     17127     17126     17128
     17130     17129     17131     17133     17132     17134     17136     17135     17137
     17139     17138     17140     17142     17141     17143     17145     17144     17146
     17148     17147     17149     17151     17150     17152     17154     17153     17155
     17157     17156     17158     17160     17159     17161     17163     17162     17164
     17166     17165     17167     17169     17168     17170     17172     17171     17173
     17175     17174     17176     17178     17177     17179     17181     17180     17182
     17184     17183     17185     17187     17186     17188     17190     17189     17191
     17193     17192     17194     17196     17195     17197     17199     17198     17200
     17202     17201     17203     17205     17204     17206     17208     17207     17209
     17211     17210     17212     17214     17213     17215     17217     17216     17218
     17220     17219     17221     17223     17222     17224     17226     17225     17227
     17229     17228     17230     17232     17231     17233     17235     17234     17236
     17238     17237     17239     17241     17240     17242     17244     17243     17245
     17247     17246     17248     17250     17249     17251     17253     17252     17254
     17256     17255     17257     17259     17258     17260     17262     17261     17263
     17265     17264     17266     17268     17267     17269     17271     17270     17272
     17274     17273     17275     17277     17276     17278     17280     17279     17281
     17283     17282     17284     17286     17285     17287     17289     17288     17290
     17292     17291     17293     17295     17294     17296     17298     17297     17299
     17301     17300     17302     17304     17303     17305     17307     17306     17308
     17310     17309     17311     17313     17312     17314     17316     17315     17317
     17319     17318     17320     17322     17321     17323     17325     17324     17326
     17328     17327     17329     17331     17330     17332     17334     17333     17335
     17337     17336     17338     17340     17339     17341     17343     17342     17344
     17346     17345     17347     17349     17348     17350     17352     17351     17353
     17355     17354     17356     17358     17357     17359     17361     17360     17362
     17364     17363     17365     17367     17366     17368     17370     17369     17371
     17373     17372     17374     17376     17375     17377     17379     17378     17380
     17382     17381     17383     17385     17384     17386     17388     17387     17389
     17391     17390     17392     17394     17393     17395     17397     17396     17398
     17400     17399     17401     17403     17402     17404     17406     17405     17407
     17409     17408     17410     17412     17411     17413     17415     17414     17416
     17418     17417     17419     17421     17420     17422     17424     17423     17425
     17427     17426     17428     17430     17429     17431     17433     17432     17434
     17436     17435     17437     17439     17438     17440     17442     17441     17443
     17445     17444     17446     17448     17447     17449     17451     17450     17452
     17454     17453     17455     17457     17456     17458     17460     17459     17461
     17463     17462     17464     17466     17465     17467     17469     17468     17470
     17472     17471     17473     17475     17474     17476     17478     17477     17479
     17481     17480     17482     17484     17483     17485     17487     17486     17488
     17490     17489     17491     17493     17492     17494     17496     17495     17497
     17499     17498     17500     17502     17501     17503     17505     17504     17506
     17508     17507     17509     17511     17510     17512     17514     17513     17515
     17517     17516     17518     17520     17519     17521     17523     17522     17524
     17526     17525     17527     17529     17528     17530     17532     17531     17533
     17535     17534     17536     17538     17537     17539     17541     17540     17542
     17544     17543     17545     17547     17546     17548     17550     17549     17551
     17553     17552     17554     17556     17555     17557     17559     17558     17560
     17562     17561     17563     17565     17564     17566     17568     17567     17569
     17571     17570     17572     17574     17573     17575     17577     17576     17578
     17580     17579     17581     17583     17582     17584     17586     17585     17587
     17589     17588     17590     17592     17591     17593     17595     17594     17596
     17598     17597     17599     17601     17600     17602     17604     17603     17605
     17607     17606     17608     17610     17609     17611     17613     17612     17614
     17616     17615     17617     17619     17618     17620     17622     17621     17623
     17625     17624     17626     17628     17627     17629     17631     17630     17632
     17634     17633     17635     17637     17636     17638     17640     17639     17641
     17643     17642     17644     17646     17645     17647     17649     17648     17650
     17652     17651     17653     17655     17654     17656     17658     17657     17659
     17661     17660     17662     17664     17663     17665     17667     17666     17668
     17670     17669     17671     17673     17672     17674     17676     17675     17677
     17679     17678     17680     17682     17681     17683     17685     17684     17686
     17688     17687     17689     17691     17690     17692     17694     17693     17695
     17697     17696     17698     17700     17699     17701     17703     17702     17704
     17706     17705     17707     17709     17708     17710     17712     17711     17713
     17715     17714     17716     17718     17717     17719     17721     17720     17722
     17724     17723     17725     17727     17726     17728     17730     17729     17731
     17733     17732     17734     17736     17735     17737     17739     17738     17740
     17742     17741     17743     17745     17744     17746     17748     17747     17749
     17751     17750     17752     17754     17753     17755     17757     17756     17758
     17760     17759     17761     17763     17762     17764     17766     17765     17767
     17769     17768     17770     17772     17771     17773     17775     17774     17776
     17778     17777     17779     17781     17780     17782     17784     17783     17785
     17787     17786     17788     17790     17789     17791     17793     17792     17794
     17796     17795     17797     17799     17798     17800     17802     17801     17803
     17805     17804     17806     17808     17807     17809     17811     17810     17812
     17814     17813     17815     17817     17816     17818     17820     17819     17821
     17823     17822     17824     17826     17825     17827     17829     17828     17830
     17832     17831     17833     17835     17834     17836     17838     17837     17839
     17841     17840     17842     17844     17843     17845     17847     17846     17848
     17850     17849     17851     17853     17852     17854     17856     17855     17857
     17859     17858     17860     17862     17861     17863     17865     17864     17866
     17868     17867     17869     17871     17870     17872     17874     17873     17875
     17877     17876     17878     17880     17879     17881     17883     17882     17884
     17886     17885     17887     17889     17888     17890     17892     17891     17893
     17895     17894     17896     17898     17897     17899     17901     17900     17902
     17904     17903     17905     17907     17906     17908     17910     17909     17911
     17913     17912     17914     17916     17915     17917     17919     17918     17920
     17922     17921     17923     17925     17924     17926     17928     17927     17929
     17931     17930     17932     17934     17933     17935     17937     17936     17938
     17940     17939     17941     17943     17942     17944     17946     17945     17947
     17949     17948     17950     17952     17951     17953     17955     17954     17956
     17958     17957     17959     17961     17960     17962     17964     17963     17965
     17967     17966     17968     17970     17969     17971     17973     17972     17974
     17976     17975     17977     17979     17978     17980     17982     17981     17983
     17985     17984     17986     17988     17987     17989     17991     17990     17992
     17994     17993     17995     17997     17996     17998     18000     17999     18001
     18003     18002     18004     18006     18005     18007     18009     18008     18010
     18012     18011     18013     18015     18014     18016     18018     18017     18019
     18021     18020     18022     18024     18023     18025     18027     18026     18028
     18030     18029     18031     18033     18032     18034     18036     18035     18037
     18039     18038     18040     18042     18041     18043     18045     18044     18046
     18048     18047     18049     18051     18050     18052     18054     18053     18055
     18057     18056     18058     18060     18059     18061     18063     18062     18064
     18066     18065     18067     18069     18068     18070     18072     18071     18073
     18075     18074     18076     18078     18077     18079     18081     18080     18082
     18084     18083     18085     18087     18086     18088     18090     18089     18091
     18093     18092     18094     18096     18095     18097     18099     18098     18100
     18102     18101     18103     18105     18104     18106     18108     18107     18109
     18111     18110     18112     18114     18113     18115     18117     18116     18118
     18120     18119     18121     18123     18122     18124     18126     18125     18127
     18129     18128     18130     18132     18131     18133     18135     18134     18136
     18138     18137     18139     18141     18140     18142     18144     18143     18145
     18147     18146     18148     18150     18149     18151     18153     18152     18154
     18156     18155     18157     18159     18158     18160     18162     18161     18163
     18165     18164     18166     18168     18167     18169     18171     18170     18172
     18174     18173     18175     18177     18176     18178     18180     18179     18181
     18183     18182     18184     18186     18185     18187     18189     18188     18190
     18192     18191     18193     18195     18194     18196     18198     18197     18199
     18201     18200     18202     18204     18203     18205     18207     18206     18208
     18210     18209     18211     18213     18212     18214     18216     18215     18217
     18219     18218     18220     18222     18221     18223     18225     18224     18226
     18228     18227     18229     18231     18230     18232     18234     18233     18235
     18237     18236     18238     18240     18239     18241     18243     18242     18244
     18246     18245     18247     18249     18248     18250     18252     18251     18253
     18255     18254     18256     18258     18257     18259     18261     18260     18262
     18264     18263     18265     18267     18266     18268     18270     18269     18271
     18273     18272     18274     18276     18275     18277     18279     18278     18280
     18282     18281     18283     18285     18284     18286     18288     18287     18289
     18291     18290     18292     18294     18293     18295     18297     18296     18298
     18300     18299     18301     18303     18302     18304     18306     18305     18307
     18309     18308     18310     18312     18311     18313     18315     18314     18316
     18318     18317     18319     18321     18320     18322     18324     18323     18325
     18327     18326     18328     18330     18329     18331     18333     18332     18334
     18336     18335     18337     18339     18338     18340     18342     18341     18343
     18345     18344     18346     18348     18347     18349     18351     18350     18352
     18354     18353     18355     18357     18356     18358     18360     18359     18361
     18363     18362     18364     18366     18365     18367     18369     18368     18370
     18372     18371     18373     18375     18374     18376     18378     18377     18379
     18381     18380     18382     18384     18383     18385     18387     18386     18388
     18390     18389     18391     18393     18392     18394     18396     18395     18397
     18399     18398     18400     18402     18401     18403     18405     18404     18406
     18408     18407     18409     18411     18410     18412     18414     18413     18415
     18417     18416     18418     18420     18419     18421     18423     18422     18424
     18426     18425     18427     18429     18428     18430     18432     18431     18433
     18435     18434     18436     18438     18437     18439     18441     18440     18442
     18444     18443     18445     18447     18446     18448     18450     18449     18451
     18453     18452     18454     18456     18455     18457     18459     18458     18460
     18462     18461     18463     18465     18464     18466     18468     18467     18469
     18471     18470     18472     18474     18473     18475     18477     18476     18478
     18480     18479     18481     18483     18482     18484     18486     18485     18487
     18489     18488     18490     18492     18491     18493     18495     18494     18496
     18498     18497     18499     18501     18500     18502     18504     18503     18505
     18507     18506     18508     18510     18509     18511     18513     18512     18514
     18516     18515     18517     18519     18518     18520     18522     18521     18523
     18525     18524     18526     18528     18527     18529     18531     18530     18532
     18534     18533     18535     18537     18536     18538     18540     18539     18541
     18543     18542     18544     18546     18545     18547     18549     18548     18550
     18552     18551     18553     18555     18554     18556     18558     18557     18559
     18561     18560     18562     18564     18563     18565     18567     18566     18568
     18570     18569     18571     18573     18572     18574     18576     18575     18577
     18579     18578     18580     18582     18581     18583     18585     18584     18586
     18588     18587     18589     18591     18590     18592     18594     18593     18595
     18597     18596     18598     18600     18599     18601     18603     18602     18604
     18606     18605     18607     18609     18608     18610     18612     18611     18613
     18615     18614     18616     18618     18617     18619     18621     18620     18622
     18624     18623     18625     18627     18626     18628     18630     18629     18631
     18633     18632     18634     18636     18635     18637     18639     18638     18640
     18642     18641     18643     18645     18644     18646     18648     18647     18649
     18651     18650     18652     18654     18653     18655     18657     18656     18658
     18660     18659     18661     18663     18662     18664     18666     18665     18667
     18669     18668     18670     18672     18671     18673     18675     18674     18676
     18678     18677     18679     18681     18680     18682     18684     18683     18685
     18687     18686     18688     18690     18689     18691     18693     18692     18694
     18696     18695     18697     18699     18698     18700     18702     18701     18703
     18705     18704     18706     18708     18707     18709     18711     18710     18712
     18714     18713     18715     18717     18716     18718     18720     18719     18721
     18723     18722     18724     18726     18725     18727     18729     18728     18730
     18732     18731     18733     18735     18734     18736     18738     18737     18739
     18741     18740     18742     18744     18743     18745     18747     18746     18748
     18750     18749     18751     18753     18752     18754     18756     18755     18757
     18759     18758     18760     18762     18761     18763     18765     18764     18766
     18768     18767     18769     18771     18770     18772     18774     18773     18775
     18777     18776     18778     18780     18779     18781     18783     18782     18784
     18786     18785     18787     18789     18788     18790     18792     18791     18793
     18795     18794     18796     18798     18797     18799     18801     18800     18802
     18804     18803     18805     18807     18806     18808     18810     18809     18811
     18813     18812     18814     18816     18815     18817     18819     18818     18820
     18822     18821     18823     18825     18824     18826     18828     18827     18829
     18831     18830     18832     18834     18833     18835     18837     18836     18838
     18840     18839     18841     18843     18842     18844     18846     18845     18847
     18849     18848     18850     18852     18851     18853     18855     18854     18856
     18858     18857     18859     18861     18860     18862     18864     18863     18865
     18867     18866     18868     18870     18869     18871     18873     18872     18874
     18876     18875     18877     18879     18878     18880     18882     18881     18883
     18885     18884     18886     18888     18887     18889     18891     18890     18892
     18894     18893     18895     18897     18896     18898     18900     18899     18901
     18903     18902     18904     18906     18905     18907     18909     18908     18910
     18912     18911     18913     18915     18914     18916     18918     18917     18919
     18921     18920     18922     18924     18923     18925     18927     18926     18928
     18930     18929     18931     18933     18932     18934     18936     18935     18937
     18939     18938     18940     18942     18941     18943     18945     18944     18946
     18948     18947     18949     18951     18950     18952     18954     18953     18955
     18957     18956     18958     18960     18959     18961     18963     18962     18964
     18966     18965     18967     18969     18968     18970     18972     18971     18973
     18975     18974     18976     18978     18977     18979     18981     18980     18982
     18984     18983     18985     18987     18986     18988     18990     18989     18991
     18993     18992     18994     18996     18995     18997     18999     18998     19000
     19002     19001     19003     19005     19004     19006     19008     19007     19009
     19011     19010     19012     19014     19013     19015     19017     19016     19018
     19020     19019     19021     19023     19022     19024     19026     19025     19027
     19029     19028     19030     19032     19031     19033     19035     19034     19036
     19038     19037     19039     19041     19040     19042     19044     19043     19045
     19047     19046     19048     19050     19049     19051     19053     19052     19054
     19056     19055     19057     19059     19058     19060     19062     19061     19063
     19065     19064     19066     19068     19067     19069     19071     19070     19072
     19074     19073     19075     19077     19076     19078     19080     19079     19081
     19083     19082     19084     19086     19085     19087     19089     19088     19090
     19092     19091     19093     19095     19094     19096     19098     19097     19099
     19101     19100     19102     19104     19103     19105     19107     19106     19108
     19110     19109     19111     19113     19112     19114     19116     19115     19117
     19119     19118     19120     19122     19121     19123     19125     19124     19126
     19128     19127     19129     19131     19130     19132     19134     19133     19135
     19137     19136     19138     19140     19139     19141     19143     19142     19144
     19146     19145     19147     19149     19148     19150     19152     19151     19153
     19155     19154     19156     19158     19157     19159     19161     19160     19162
     19164     19163     19165     19167     19166     19168     19170     19169     19171
     19173     19172     19174     19176     19175     19177     19179     19178     19180
     19182     19181     19183     19185     19184     19186     19188     19187     19189
     19191     19190     19192     19194     19193     19195     19197     19196     19198
     19200     19199     19201     19203     19202     19204     19206     19205     19207
     19209     19208     19210     19212     19211     19213     19215     19214     19216
     19218     19217     19219     19221     19220     19222     19224     19223     19225
     19227     19226     19228     19230     19229     19231     19233     19232     19234
     19236     19235     19237     19239     19238     19240     19242     19241     19243
     19245     19244     19246     19248     19247     19249     19251     19250     19252
     19254     19253     19255     19257     19256     19258     19260     19259     19261
     19263     19262     19264     19266     19265     19267     19269     19268     19270
     19272     19271     19273     19275     19274     19276     19278     19277     19279
     19281     19280     19282     19284     19283     19285     19287     19286     19288
     19290     19289     19291     19293     19292     19294     19296     19295     19297
     19299     19298     19300     19302     19301     19303     19305     19304     19306
     19308     19307     19309     19311     19310     19312     19314     19313     19315
     19317     19316     19318     19320     19319     19321     19323     19322     19324
     19326     19325     19327     19329     19328     19330     19332     19331     19333
     19335     19334     19336     19338     19337     19339     19341     19340     19342
     19344     19343     19345     19347     19346     19348     19350     19349     19351
     19353     19352     19354     19356     19355     19357     19359     19358     19360
     19362     19361     19363     19365     19364     19366     19368     19367     19369
     19371     19370     19372     19374     19373     19375     19377     19376     19378
     19380     19379     19381     19383     19382     19384     19386     19385     19387
     19389     19388     19390     19392     19391     19393     19395     19394     19396
     19398     19397     19399     19401     19400     19402     19404     19403     19405
     19407     19406     19408     19410     19409     19411     19413     19412     19414
     19416     19415     19417     19419     19418     19420     19422     19421     19423
     19425     19424     19426     19428     19427     19429     19431     19430     19432
     19434     19433     19435     19437     19436     19438     19440     19439     19441
     19443     19442     19444     19446     19445     19447     19449     19448     19450
     19452     19451     19453     19455     19454     19456     19458     19457     19459
     19461     19460     19462     19464     19463     19465     19467     19466     19468
     19470     19469     19471     19473     19472     19474     19476     19475     19477
     19479     19478     19480     19482     19481     19483     19485     19484     19486
     19488     19487     19489     19491     19490     19492     19494     19493     19495
     19497     19496     19498     19500     19499     19501     19503     19502     19504
     19506     19505     19507     19509     19508     19510     19512     19511     19513
     19515     19514     19516     19518     19517     19519     19521     19520     19522
     19524     19523     19525     19527     19526     19528     19530     19529     19531
     19533     19532     19534     19536     19535     19537     19539     19538     19540
     19542     19541     19543     19545     19544     19546     19548     19547     19549
     19551     19550     19552     19554     19553     19555     19557     19556     19558
     19560     19559     19561     19563     19562     19564     19566     19565     19567
     19569     19568     19570     19572     19571     19573     19575     19574     19576
     19578     19577     19579     19581     19580     19582     19584     19583     19585
     19587     19586     19588     19590     19589     19591     19593     19592     19594
     19596     19595     19597     19599     19598     19600     19602     19601     19603
     19605     19604     19606     19608     19607     19609     19611     19610     19612
     19614     19613     19615     19617     19616     19618     19620     19619     19621
     19623     19622     19624     19626     19625     19627     19629     19628     19630
     19632     19631     19633     19635     19634     19636     19638     19637     19639
     19641     19640     19642     19644     19643     19645     19647     19646     19648
     19650     19649     19651     19653     19652     19654     19656     19655     19657
     19659     19658     19660     19662     19661     19663     19665     19664     19666
     19668     19667     19669     19671     19670     19672     19674     19673     19675
     19677     19676     19678     19680     19679     19681     19683     19682     19684
     19686     19685     19687     19689     19688     19690     19692     19691     19693
     19695     19694     19696     19698     19697     19699     19701     19700     19702
     19704     19703     19705     19707     19706     19708     19710     19709     19711
     19713     19712     19714     19716     19715     19717     19719     19718     19720
     19722     19721     19723     19725     19724     19726     19728     19727     19729
     19731     19730     19732     19734     19733     19735     19737     19736     19738
     19740     19739     19741     19743     19742     19744     19746     19745     19747
     19749     19748     19750     19752     19751     19753     19755     19754     19756
     19758     19757     19759     19761     19760     19762     19764     19763     19765
     19767     19766     19768     19770     19769     19771     19773     19772     19774
     19776     19775     19777     19779     19778     19780     19782     19781     19783
     19785     19784     19786     19788     19787     19789     19791     19790     19792
     19794     19793     19795     19797     19796     19798     19800     19799     19801
     19803     19802     19804     19806     19805     19807     19809     19808     19810
     19812     19811     19813     19815     19814     19816     19818     19817     19819
     19821     19820     19822     19824     19823     19825     19827     19826     19828
     19830     19829     19831     19833     19832     19834     19836     19835     19837
     19839     19838     19840     19842     19841     19843     19845     19844     19846
     19848     19847     19849     19851     19850     19852     19854     19853     19855
     19857     19856     19858     19860     19859     19861     19863     19862     19864
     19866     19865     19867     19869     19868     19870     19872     19871     19873
     19875     19874     19876     19878     19877     19879     19881     19880     19882
     19884     19883     19885     19887     19886     19888     19890     19889     19891
     19893     19892     19894     19896     19895     19897     19899     19898     19900
     19902     19901     19903     19905     19904     19906     19908     19907     19909
     19911     19910     19912     19914     19913     19915     19917     19916     19918
     19920     19919     19921     19923     19922     19924     19926     19925     19927
     19929     19928     19930     19932     19931     19933     19935     19934     19936
     19938     19937     19939     19941     19940     19942     19944     19943     19945
     19947     19946     19948     19950     19949     19951     19953     19952     19954
     19956     19955     19957     19959     19958     19960     19962     19961     19963
     19965     19964     19966     19968     19967     19969     19971     19970     19972
     19974     19973     19975     19977     19976     19978     19980     19979     19981
     19983     19982     19984     19986     19985     19987     19989     19988     19990
     19992     19991     19993     19995     19994     19996     19998     19997     19999
     20001     20000     20002     20004     20003     20005     20007     20006     20008
     20010     20009     20011     20013     20012     20014     20016     20015     20017
     20019     20018     20020     20022     20021     20023     20025     20024     20026
     20028     20027     20029     20031     20030     20032     20034     20033     20035
     20037     20036     20038     20040     20039     20041     20043     20042     20044
     20046     20045     20047     20049     20048     20050     20052     20051     20053
     20055     20054     20056     20058     20057     20059     20061     20060     20062
     20064     20063     20065     20067     20066     20068     20070     20069     20071
     20073     20072     20074     20076     20075     20077     20079     20078     20080
     20082     20081     20083     20085     20084     20086     20088     20087     20089
     20091     20090     20092     20094     20093     20095     20097     20096     20098
     20100     20099     20101     20103     20102     20104     20106     20105     20107
     20109     20108     20110     20112     20111     20113     20115     20114     20116
     20118     20117     20119     20121     20120     20122     20124     20123     20125
     20127     20126     20128     20130     20129     20131     20133     20132     20134
     20136     20135     20137     20139     20138     20140     20142     20141     20143
     20145     20144     20146     20148     20147     20149     20151     20150     20152
     20154     20153     20155     20157     20156     20158     20160     20159     20161
     20163     20162     20164     20166     20165     20167     20169     20168     20170
     20172     20171     20173     20175     20174     20176     20178     20177     20179
     20181     20180     20182     20184     20183     20185     20187     20186     20188
     20190     20189     20191     20193     20192     20194     20196     20195     20197
     20199     20198     20200     20202     20201     20203     20205     20204     20206
     20208     20207     20209     20211     20210     20212     20214     20213     20215
     20217     20216     20218     20220     20219     20221     20223     20222     20224
     20226     20225     20227     20229     20228     20230     20232     20231     20233
     20235     20234     20236     20238     20237     20239     20241     20240     20242
     20244     20243     20245     20247     20246     20248     20250     20249     20251
     20253     20252     20254     20256     20255     20257     20259     20258     20260
     20262     20261     20263     20265     20264     20266     20268     20267     20269
     20271     20270     20272     20274     20273     20275     20277     20276     20278
     20280     20279     20281     20283     20282     20284     20286     20285     20287
     20289     20288     20290     20292     20291     20293     20295     20294     20296
     20298     20297     20299     20301     20300     20302     20304     20303     20305
     20307     20306     20308     20310     20309     20311     20313     20312     20314
     20316     20315     20317     20319     20318     20320     20322     20321     20323
     20325     20324     20326     20328     20327     20329     20331     20330     20332
     20334     20333     20335     20337     20336     20338     20340     20339     20341
     20343     20342     20344     20346     20345     20347     20349     20348     20350
     20352     20351     20353     20355     20354     20356     20358     20357     20359
     20361     20360     20362     20364     20363     20365     20367     20366     20368
     20370     20369     20371     20373     20372     20374     20376     20375     20377
     20379     20378     20380     20382     20381     20383     20385     20384     20386
     20388     20387     20389     20391     20390     20392     20394     20393     20395
     20397     20396     20398     20400     20399     20401     20403     20402     20404
     20406     20405     20407     20409     20408     20410     20412     20411     20413
     20415     20414     20416     20418     20417     20419     20421     20420     20422
     20424     20423     20425     20427     20426     20428     20430     20429     20431
     20433     20432     20434     20436     20435     20437     20439     20438     20440
     20442     20441     20443     20445     20444     20446     20448     20447     20449
     20451     20450     20452     20454     20453     20455     20457     20456     20458
     20460     20459     20461     20463     20462     20464     20466     20465     20467
     20469     20468     20470     20472     20471     20473     20475     20474     20476
     20478     20477     20479     20481     20480     20482     20484     20483     20485
     20487     20486     20488     20490     20489     20491     20493     20492     20494
     20496     20495     20497     20499     20498     20500     20502     20501     20503
     20505     20504     20506     20508     20507     20509     20511     20510     20512
     20514     20513     20515     20517     20516     20518     20520     20519     20521
     20523     20522     20524     20526     20525     20527     20529     20528     20530
     20532     20531     20533     20535     20534     20536     20538     20537     20539
     20541     20540     20542     20544     20543     20545     20547     20546     20548
     20550     20549     20551     20553     20552     20554     20556     20555     20557
     20559     20558     20560     20562     20561     20563     20565     20564     20566
     20568     20567     20569     20571     20570     20572     20574     20573     20575
     20577     20576     20578     20580     20579     20581     20583     20582     20584
     20586     20585     20587     20589     20588     20590     20592     20591     20593
     20595     20594     20596     20598     20597     20599     20601     20600     20602
     20604     20603     20605     20607     20606     20608     20610     20609     20611
     20613     20612     20614     20616     20615     20617     20619     20618     20620
     20622     20621     20623     20625     20624     20626     20628     20627     20629
     20631     20630     20632     20634     20633     20635     20637     20636     20638
     20640     20639     20641     20643     20642     20644     20646     20645     20647
     20649     20648     20650     20652     20651     20653     20655     20654     20656
     20658     20657     20659     20661     20660     20662     20664     20663     20665
     20667     20666     20668     20670     20669     20671     20673     20672     20674
     20676     20675     20677     20679     20678     20680     20682     20681     20683
     20685     20684     20686     20688     20687     20689     20691     20690     20692
     20694     20693     20695     20697     20696     20698     20700     20699     20701
     20703     20702     20704     20706     20705     20707     20709     20708     20710
     20712     20711     20713     20715     20714     20716     20718     20717     20719
     20721     20720     20722     20724     20723     20725     20727     20726     20728
     20730     20729     20731     20733     20732     20734     20736     20735     20737
     20739     20738     20740     20742     20741     20743     20745     20744     20746
     20748     20747     20749     20751     20750     20752     20754     20753     20755
     20757     20756     20758     20760     20759     20761     20763     20762     20764
     20766     20765     20767     20769     20768     20770     20772     20771     20773
     20775     20774     20776     20778     20777     20779     20781     20780     20782
     20784     20783     20785     20787     20786     20788     20790     20789     20791
     20793     20792     20794     20796     20795     20797     20799     20798     20800
     20802     20801     20803     20805     20804     20806     20808     20807     20809
     20811     20810     20812     20814     20813     20815     20817     20816     20818
     20820     20819     20821     20823     20822     20824     20826     20825     20827
     20829     20828     20830     20832     20831     20833     20835     20834     20836
     20838     20837     20839     20841     20840     20842     20844     20843     20845
     20847     20846     20848     20850     20849     20851     20853     20852     20854
     20856     20855     20857     20859     20858     20860     20862     20861     20863
     20865     20864     20866     20868     20867     20869     20871     20870     20872
     20874     20873     20875     20877     20876     20878     20880     20879     20881
     20883     20882     20884     20886     20885     20887     20889     20888     20890
     20892     20891     20893     20895     20894     20896     20898     20897     20899
     20901     20900     20902     20904     20903     20905     20907     20906     20908
     20910     20909     20911     20913     20912     20914     20916     20915     20917
     20919     20918     20920     20922     20921     20923     20925     20924     20926
     20928     20927     20929     20931     20930     20932     20934     20933     20935
     20937     20936     20938     20940     20939     20941     20943     20942     20944
     20946     20945     20947     20949     20948     20950     20952     20951     20953
     20955     20954     20956     20958     20957     20959     20961     20960     20962
     20964     20963     20965     20967     20966     20968     20970     20969     20971
     20973     20972     20974     20976     20975     20977     20979     20978     20980
     20982     20981     20983     20985     20984     20986     20988     20987     20989
     20991     20990     20992     20994     20993     20995     20997     20996     20998
     21000     20999     21001     21003     21002     21004     21006     21005     21007
     21009     21008     21010     21012     21011     21013     21015     21014     21016
     21018     21017     21019     21021     21020     21022     21024     21023     21025
     21027     21026     21028     21030     21029     21031     21033     21032     21034
     21036     21035     21037     21039     21038     21040     21042     21041     21043
     21045     21044     21046     21048     21047     21049     21051     21050     21052
     21054     21053     21055     21057     21056     21058     21060     21059     21061
     21063     21062     21064     21066     21065     21067     21069     21068     21070
     21072     21071     21073     21075     21074     21076     21078     21077     21079
     21081     21080     21082     21084     21083     21085     21087     21086     21088
     21090     21089     21091     21093     21092     21094     21096     21095     21097
     21099     21098     21100     21102     21101     21103     21105     21104     21106
     21108     21107     21109     21111     21110     21112     21114     21113     21115
     21117     21116     21118     21120     21119     21121     21123     21122     21124
     21126     21125     21127     21129     21128     21130     21132     21131     21133
     21135     21134     21136     21138     21137     21139     21141     21140     21142
     21144     21143     21145     21147     21146     21148     21150     21149     21151
     21153     21152     21154     21156     21155     21157     21159     21158     21160
     21162     21161     21163     21165     21164     21166     21168     21167     21169
     21171     21170     21172     21174     21173     21175     21177     21176     21178
     21180     21179     21181     21183     21182     21184     21186     21185     21187
     21189     21188     21190     21192     21191     21193     21195     21194     21196
     21198     21197     21199     21201     21200     21202     21204     21203     21205
     21207     21206     21208     21210     21209     21211     21213     21212     21214
     21216     21215     21217     21219     21218     21220     21222     21221     21223
     21225     21224     21226     21228     21227     21229     21231     21230     21232
     21234     21233     21235     21237     21236     21238     21240     21239     21241
     21243     21242     21244     21246     21245     21247     21249     21248     21250
     21252     21251     21253     21255     21254     21256     21258     21257     21259
     21261     21260     21262     21264     21263     21265     21267     21266     21268
     21270     21269     21271     21273     21272     21274     21276     21275     21277
     21279     21278     21280     21282     21281     21283     21285     21284     21286
     21288     21287     21289     21291     21290     21292     21294     21293     21295
     21297     21296     21298     21300     21299     21301     21303     21302     21304
     21306     21305     21307     21309     21308     21310     21312     21311     21313
     21315     21314     21316     21318     21317     21319     21321     21320     21322
     21324     21323     21325     21327     21326     21328     21330     21329     21331
     21333     21332     21334     21336     21335     21337     21339     21338     21340
     21342     21341     21343     21345     21344     21346     21348     21347     21349
     21351     21350     21352     21354     21353     21355     21357     21356     21358
     21360     21359     21361     21363     21362     21364     21366     21365     21367
     21369     21368     21370     21372     21371     21373     21375     21374     21376
     21378     21377     21379     21381     21380     21382     21384     21383     21385
     21387     21386     21388     21390     21389     21391     21393     21392     21394
     21396     21395     21397     21399     21398     21400     21402     21401     21403
     21405     21404     21406     21408     21407     21409     21411     21410     21412
     21414     21413     21415     21417     21416     21418     21420     21419     21421
     21423     21422     21424     21426     21425     21427     21429     21428     21430
     21432     21431     21433     21435     21434     21436     21438     21437     21439
     21441     21440     21442     21444     21443     21445     21447     21446     21448
     21450     21449     21451     21453     21452     21454     21456     21455     21457
     21459     21458     21460     21462     21461     21463     21465     21464     21466
     21468     21467     21469     21471     21470     21472     21474     21473     21475
     21477     21476     21478     21480     21479     21481     21483     21482     21484
     21486     21485     21487     21489     21488     21490     21492     21491     21493
     21495     21494     21496     21498     21497     21499     21501     21500     21502
     21504     21503     21505     21507     21506     21508     21510     21509     21511
     21513     21512     21514     21516     21515     21517     21519     21518     21520
     21522     21521     21523     21525     21524     21526     21528     21527     21529
     21531     21530     21532     21534     21533     21535     21537     21536     21538
     21540     21539     21541     21543     21542     21544     21546     21545     21547
     21549     21548     21550     21552     21551     21553     21555     21554     21556
     21558     21557     21559     21561     21560     21562     21564     21563     21565
     21567     21566     21568     21570     21569     21571     21573     21572     21574
     21576     21575     21577     21579     21578     21580     21582     21581     21583
     21585     21584     21586     21588     21587     21589     21591     21590     21592
     21594     21593     21595     21597     21596     21598     21600     21599     21601
     21603     21602     21604     21606     21605     21607     21609     21608     21610
     21612     21611     21613     21615     21614     21616     21618     21617     21619
     21621     21620     21622     21624     21623     21625     21627     21626     21628
     21630     21629     21631     21633     21632     21634     21636     21635     21637
     21639     21638     21640     21642     21641     21643     21645     21644     21646
     21648     21647     21649     21651     21650     21652     21654     21653     21655
     21657     21656     21658     21660     21659     21661     21663     21662     21664
     21666     21665     21667     21669     21668     21670     21672     21671     21673
     21675     21674     21676     21678     21677     21679     21681     21680     21682
     21684     21683     21685     21687     21686     21688     21690     21689     21691
     21693     21692     21694     21696     21695     21697     21699     21698     21700
     21702     21701     21703     21705     21704     21706     21708     21707     21709
     21711     21710     21712     21714     21713     21715     21717     21716     21718
     21720     21719     21721     21723     21722     21724     21726     21725     21727
     21729     21728     21730     21732     21731     21733     21735     21734     21736
     21738     21737     21739     21741     21740     21742     21744     21743     21745
     21747     21746     21748     21750     21749     21751     21753     21752     21754
     21756     21755     21757     21759     21758     21760     21762     21761     21763
     21765     21764     21766     21768     21767     21769     21771     21770     21772
     21774     21773     21775     21777     21776     21778     21780     21779     21781
     21783     21782     21784     21786     21785     21787     21789     21788     21790
     21792     21791     21793     21795     21794     21796     21798     21797     21799
     21801     21800     21802     21804     21803     21805     21807     21806     21808
     21810     21809     21811     21813     21812     21814     21816     21815     21817
     21819     21818     21820     21822     21821     21823     21825     21824     21826
     21828     21827     21829     21831     21830     21832     21834     21833     21835
     21837     21836     21838     21840     21839     21841     21843     21842     21844
     21846     21845     21847     21849     21848     21850     21852     21851     21853
     21855     21854     21856     21858     21857     21859     21861     21860     21862
     21864     21863     21865     21867     21866     21868     21870     21869     21871
     21873     21872     21874     21876     21875     21877     21879     21878     21880
     21882     21881     21883     21885     21884     21886     21888     21887     21889
     21891     21890     21892     21894     21893     21895     21897     21896     21898
     21900     21899     21901     21903     21902     21904     21906     21905     21907
     21909     21908     21910     21912     21911     21913     21915     21914     21916
     21918     21917     21919     21921     21920     21922     21924     21923     21925
     21927     21926     21928     21930     21929     21931     21933     21932     21934
     21936     21935     21937     21939     21938     21940     21942     21941     21943
     21945     21944     21946     21948     21947     21949     21951     21950     21952
     21954     21953     21955     21957     21956     21958     21960     21959     21961
     21963     21962     21964     21966     21965     21967     21969     21968     21970
     21972     21971     21973     21975     21974     21976     21978     21977     21979
     21981     21980     21982     21984     21983     21985     21987     21986     21988
     21990     21989     21991     21993     21992     21994     21996     21995     21997
     21999     21998     22000     22002     22001     22003     22005     22004     22006
     22008     22007     22009     22011     22010     22012     22014     22013     22015
     22017     22016     22018     22020     22019     22021     22023     22022     22024
     22026     22025     22027     22029     22028     22030     22032     22031     22033
     22035     22034     22036     22038     22037     22039     22041     22040     22042
     22044     22043     22045     22047     22046     22048     22050     22049     22051
     22053     22052     22054     22056     22055     22057     22059     22058     22060
     22062     22061     22063     22065     22064     22066     22068     22067     22069
     22071     22070     22072     22074     22073     22075     22077     22076     22078
     22080     22079     22081     22083     22082     22084     22086     22085     22087
     22089     22088     22090     22092     22091     22093     22095     22094     22096
     22098     22097     22099     22101     22100     22102     22104     22103     22105
     22107     22106     22108     22110     22109     22111     22113     22112     22114
     22116     22115     22117     22119     22118     22120     22122     22121     22123
     22125     22124     22126     22128     22127     22129     22131     22130     22132
     22134     22133     22135     22137     22136     22138     22140     22139     22141
     22143     22142     22144     22146     22145     22147     22149     22148     22150
     22152     22151     22153     22155     22154     22156     22158     22157     22159
     22161     22160     22162     22164     22163     22165     22167     22166     22168
     22170     22169     22171     22173     22172     22174     22176     22175     22177
     22179     22178     22180     22182     22181     22183     22185     22184     22186
     22188     22187     22189     22191     22190     22192     22194     22193     22195
     22197     22196     22198     22200     22199     22201     22203     22202     22204
     22206     22205     22207     22209     22208     22210     22212     22211     22213
     22215     22214     22216     22218     22217     22219     22221     22220     22222
     22224     22223     22225     22227     22226     22228     22230     22229     22231
     22233     22232     22234     22236     22235     22237     22239     22238     22240
     22242     22241     22243     22245     22244     22246     22248     22247     22249
     22251     22250     22252     22254     22253     22255     22257     22256     22258
     22260     22259     22261     22263     22262     22264     22266     22265     22267
     22269     22268     22270     22272     22271     22273     22275     22274     22276
     22278     22277     22279     22281     22280     22282     22284     22283     22285
     22287     22286     22288     22290     22289     22291     22293     22292     22294
     22296     22295     22297     22299     22298     22300     22302     22301     22303
     22305     22304     22306     22308     22307     22309     22311     22310     22312
     22314     22313     22315     22317     22316     22318     22320     22319     22321
     22323     22322     22324     22326     22325     22327     22329     22328     22330
     22332     22331     22333     22335     22334     22336     22338     22337     22339
     22341     22340     22342     22344     22343     22345     22347     22346     22348
     22350     22349     22351     22353     22352     22354     22356     22355     22357
     22359     22358     22360     22362     22361     22363     22365     22364     22366
     22368     22367     22369     22371     22370     22372     22374     22373     22375
     22377     22376     22378     22380     22379     22381     22383     22382     22384
     22386     22385     22387     22389     22388     22390     22392     22391     22393
     22395     22394     22396     22398     22397     22399     22401     22400     22402
     22404     22403     22405     22407     22406     22408     22410     22409     22411
     22413     22412     22414     22416     22415     22417     22419     22418     22420
     22422     22421     22423     22425     22424     22426     22428     22427     22429
     22431     22430     22432     22434     22433     22435     22437     22436     22438
     22440     22439     22441     22443     22442     22444     22446     22445     22447
     22449     22448     22450     22452     22451     22453     22455     22454     22456
     22458     22457     22459     22461     22460     22462     22464     22463     22465
     22467     22466     22468     22470     22469     22471     22473     22472     22474
     22476     22475     22477     22479     22478     22480     22482     22481     22483
     22485     22484     22486     22488     22487     22489     22491     22490     22492
     22494     22493     22495     22497     22496     22498     22500     22499     22501
     22503     22502     22504     22506     22505     22507     22509     22508     22510
     22512     22511     22513     22515     22514     22516     22518     22517     22519
     22521     22520     22522     22524     22523     22525     22527     22526     22528
     22530     22529     22531     22533     22532     22534     22536     22535     22537
     22539     22538     22540     22542     22541     22543     22545     22544     22546
     22548     22547     22549     22551     22550     22552     22554     22553     22555
     22557     22556     22558     22560     22559     22561     22563     22562     22564
     22566     22565     22567     22569     22568     22570     22572     22571     22573
     22575     22574     22576     22578     22577     22579     22581     22580     22582
     22584     22583     22585     22587     22586     22588     22590     22589     22591
     22593     22592     22594     22596     22595     22597     22599     22598     22600
     22602     22601     22603     22605     22604     22606     22608     22607     22609
     22611     22610     22612     22614     22613     22615     22617     22616     22618
     22620     22619     22621     22623     22622     22624     22626     22625     22627
     22629     22628     22630     22632     22631     22633     22635     22634     22636
     22638     22637     22639     22641     22640     22642     22644     22643     22645
     22647     22646     22648     22650     22649     22651     22653     22652     22654
     22656     22655     22657     22659     22658     22660     22662     22661     22663
     22665     22664     22666     22668     22667     22669     22671     22670     22672
     22674     22673     22675     22677     22676     22678     22680     22679     22681
     22683     22682     22684     22686     22685     22687     22689     22688     22690
     22692     22691     22693     22695     22694     22696     22698     22697     22699
     22701     22700     22702     22704     22703     22705     22707     22706     22708
     22710     22709     22711     22713     22712     22714     22716     22715     22717
     22719     22718     22720     22722     22721     22723     22725     22724     22726
     22728     22727     22729     22731     22730     22732     22734     22733     22735
     22737     22736     22738     22740     22739     22741     22743     22742     22744
     22746     22745     22747     22749     22748     22750     22752     22751     22753
     22755     22754     22756     22758     22757     22759     22761     22760     22762
     22764     22763     22765     22767     22766     22768     22770     22769     22771
     22773     22772     22774     22776     22775     22777     22779     22778     22780
     22782     22781     22783     22785     22784     22786     22788     22787     22789
     22791     22790     22792     22794     22793     22795     22797     22796     22798
     22800     22799     22801     22803     22802     22804     22806     22805     22807
     22809     22808     22810     22812     22811     22813     22815     22814     22816
     22818     22817     22819     22821     22820     22822     22824     22823     22825
     22827     22826     22828     22830     22829     22831     22833     22832     22834
     22836     22835     22837     22839     22838     22840     22842     22841     22843
     22845     22844     22846     22848     22847     22849     22851     22850     22852
     22854     22853     22855     22857     22856     22858     22860     22859     22861
     22863     22862     22864     22866     22865     22867     22869     22868     22870
     22872     22871     22873     22875     22874     22876     22878     22877     22879
     22881     22880     22882     22884     22883     22885     22887     22886     22888
     22890     22889     22891     22893     22892     22894     22896     22895     22897
     22899     22898     22900     22902     22901     22903     22905     22904     22906
     22908     22907     22909     22911     22910     22912     22914     22913     22915
     22917     22916     22918     22920     22919     22921     22923     22922     22924
     22926     22925     22927     22929     22928     22930     22932     22931     22933
     22935     22934     22936     22938     22937     22939     22941     22940     22942
     22944     22943     22945     22947     22946     22948     22950     22949     22951
     22953     22952     22954     22956     22955     22957     22959     22958     22960
     22962     22961     22963     22965     22964     22966     22968     22967     22969
     22971     22970     22972     22974     22973     22975     22977     22976     22978
     22980     22979     22981     22983     22982     22984     22986     22985     22987
     22989     22988     22990     22992     22991     22993     22995     22994     22996
     22998     22997     22999     23001     23000     23002     23004     23003     23005
     23007     23006     23008     23010     23009     23011     23013     23012     23014
     23016     23015     23017     23019     23018     23020     23022     23021     23023
     23025     23024     23026     23028     23027     23029     23031     23030     23032
     23034     23033     23035     23037     23036     23038     23040     23039     23041
     23043     23042     23044     23046     23045     23047     23049     23048     23050
     23052     23051     23053     23055     23054     23056     23058     23057     23059
     23061     23060     23062     23064     23063     23065     23067     23066     23068
     23070     23069     23071     23073     23072     23074     23076     23075     23077
     23079     23078     23080     23082     23081     23083     23085     23084     23086
     23088     23087     23089     23091     23090     23092     23094     23093     23095
     23097     23096     23098     23100     23099     23101     23103     23102     23104
     23106     23105     23107     23109     23108     23110     23112     23111     23113
     23115     23114     23116     23118     23117     23119     23121     23120     23122
     23124     23123     23125     23127     23126     23128     23130     23129     23131
     23133     23132     23134     23136     23135     23137     23139     23138     23140
     23142     23141     23143     23145     23144     23146     23148     23147     23149
     23151     23150     23152     23154     23153     23155     23157     23156     23158
     23160     23159     23161     23163     23162     23164     23166     23165     23167
     23169     23168     23170     23172     23171     23173     23175     23174     23176
     23178     23177     23179     23181     23180     23182     23184     23183     23185
     23187     23186     23188     23190     23189     23191     23193     23192     23194
     23196     23195     23197     23199     23198     23200     23202     23201     23203
     23205     23204     23206     23208     23207     23209     23211     23210     23212
     23214     23213     23215     23217     23216     23218     23220     23219     23221
     23223     23222     23224     23226     23225     23227     23229     23228     23230
     23232     23231     23233     23235     23234     23236     23238     23237     23239
     23241     23240     23242     23244     23243     23245     23247     23246     23248
     23250     23249     23251     23253     23252     23254     23256     23255     23257
     23259     23258     23260     23262     23261     23263     23265     23264     23266
     23268     23267     23269     23271     23270     23272     23274     23273     23275
     23277     23276     23278     23280     23279     23281     23283     23282     23284
     23286     23285     23287     23289     23288     23290     23292     23291     23293
     23295     23294     23296     23298     23297     23299     23301     23300     23302
     23304     23303     23305     23307     23306     23308     23310     23309     23311
     23313     23312     23314     23316     23315     23317     23319     23318     23320
     23322     23321     23323     23325     23324     23326     23328     23327     23329
     23331     23330     23332     23334     23333     23335     23337     23336     23338
     23340     23339     23341     23343     23342     23344     23346     23345     23347
     23349     23348     23350     23352     23351     23353     23355     23354     23356
     23358     23357     23359     23361     23360     23362     23364     23363     23365
     23367     23366     23368     23370     23369     23371     23373     23372     23374
     23376     23375     23377     23379     23378     23380     23382     23381     23383
     23385     23384     23386     23388     23387     23389     23391     23390     23392
     23394     23393     23395     23397     23396     23398     23400     23399     23401
     23403     23402     23404     23406     23405     23407     23409     23408     23410
     23412     23411     23413     23415     23414     23416     23418     23417     23419
     23421     23420     23422     23424     23423     23425     23427     23426     23428
     23430     23429     23431     23433     23432     23434     23436     23435     23437
     23439     23438     23440     23442     23441     23443     23445     23444     23446
     23448     23447     23449     23451     23450     23452     23454     23453     23455
     23457     23456     23458     23460     23459     23461     23463     23462     23464
     23466     23465     23467     23469     23468     23470     23472     23471     23473
     23475     23474     23476     23478     23477     23479     23481     23480     23482
     23484     23483     23485     23487     23486     23488     23490     23489     23491
     23493     23492     23494     23496     23495     23497     23499     23498     23500
     23502     23501     23503     23505     23504     23506     23508     23507     23509
     23511     23510     23512     23514     23513     23515     23517     23516     23518
     23520     23519     23521     23523     23522     23524     23526     23525     23527
     23529     23528     23530     23532     23531     23533     23535     23534     23536
     23538     23537     23539     23541     23540     23542     23544     23543     23545
     23547     23546     23548     23550     23549     23551     23553     23552     23554
     23556     23555     23557     23559     23558     23560     23562     23561     23563
     23565     23564     23566     23568     23567     23569     23571     23570     23572
     23574     23573     23575     23577     23576     23578     23580     23579     23581
     23583     23582     23584     23586     23585     23587     23589     23588     23590
     23592     23591     23593     23595     23594     23596     23598     23597     23599
     23601     23600     23602     23604     23603     23605     23607     23606     23608
     23610     23609     23611     23613     23612     23614     23616     23615     23617
     23619     23618     23620     23622     23621     23623     23625     23624     23626
     23628     23627     23629     23631     23630     23632     23634     23633     23635
     23637     23636     23638     23640     23639     23641     23643     23642     23644
     23646     23645     23647     23649     23648     23650     23652     23651     23653
     23655     23654     23656     23658     23657     23659     23661     23660     23662
     23664     23663     23665     23667     23666     23668     23670     23669     23671
     23673     23672     23674     23676     23675     23677     23679     23678     23680

     22336 !NPHI: dihedrals
         1        14        17        18         1        14        17        19
         1        14        17        24         2         1         6         7
         2         1         6         8         2         1         6         9
         2         1        10        11         2         1        10        12
         2         1        10        13         2         1        14        15
         2         1        14        16         2         1        14        17
         3         2         1         6         3         2         1        10
         3         2         1        14         4         2         1         6
         4         2         1        10         4         2         1        14
         5         2         1         6         5         2         1        10
         5         2         1        14         6         1        10        11
         6         1        10        12         6         1        10        13
         6         1        14        15         6         1        14        16
         6         1        14        17         7         6         1        10
         7         6         1        14         8         6         1        10
         8         6         1        14         9         6         1        10
         9         6         1        14        10         1        14        15
        10         1        14        16        10         1        14        17
        11        10         1        14        12        10         1        14
        13        10         1        14        14        17        24        20
        15        14        17        18        15        14        17        19
        15        14        17        24        16        14        17        18
        16        14        17        19        16        14        17        24
        17        24        20        21        17        24        20        22
        17        24        20        23        18        17        24        20
        19        17        24        20        20        23        25        26
        20        23        25        27        20        23        25        28
        21        20        23        25        22        20        23        25
        23        25        28        29        23        25        28        30
        23        25        28        36        24        20        23        25
        25        28        30        31        25        28        36        37
        25        28        36        38        25        28        36        39
        26        25        28        29        26        25        28        30
        26        25        28        36        27        25        28        29
        27        25        28        30        27        25        28        36
        28        30        31        32        28        30        31        33
        28        36        39        40        29        28        30        31
        29        28        36        37        29        28        36        38
        29        28        36        39        30        28        36        37
        30        28        36        38        30        28        36        39
        30        31        33        34        30        31        33        35
        30        31        33        45        31        30        28        36
        31        33        45        46        31        33        45        47
        31        33        45        48        32        31        33        34
        32        31        33        35        32        31        33        45
        33        45        48        49        33        45        48        50
        33        45        48        51        34        33        45        46
        34        33        45        47        34        33        45        48
        35        33        45        46        35        33        45        47
        35        33        45        48        36        39        40        41
        36        39        40        42        37        36        39        40
        38        36        39        40        39        40        42        43
        39        40        42        44        39        40        42        88
        40        42        88        89        40        42        88        90
        40        42        88        91        41        40        42        43
        41        40        42        44        41        40        42        88
        42        88        91        92        42        88        91        93
        42        88        91        94        43        42        88        89
        43        42        88        90        43        42        88        91
        44        42        88        89        44        42        88        90
        44        42        88        91        45        48        51        52
        45        48        51        53        45        48        51        54
        46        45        48        49        46        45        48        50
        46        45        48        51        47        45        48        49
        47        45        48        50        47        45        48        51
        48        51        54        55        48        51        54        56
        48        51        54        57        49        48        51        52
        49        48        51        53        49        48        51        54
        50        48        51        52        50        48        51        53
        50        48        51        54        51        54        57        58
        51        54        57        59        51        54        57        60
        52        51        54        55        52        51        54        56
        52        51        54        57        53        51        54        55
        53        51        54        56        53        51        54        57
        54        57        60        61        54        57        60        62
        54        57        60        63        55        54        57        58
        55        54        57        59        55        54        57        60
        56        54        57        58        56        54        57        59
        56        54        57        60        57        60        63        64
        57        60        63        65        57        60        63        66
        58        57        60        61        58        57        60        62
        58        57        60        63        59        57        60        61
        59        57        60        62        59        57        60        63
        60        63        66        67        60        63        66        68
        60        63        66        69        61        60        63        64
        61        60        63        65        61        60        63        66
        62        60        63        64        62        60        63        65
        62        60        63        66        63        66        69        70
        63        66        69        71        63        66        69        72
        64        63        66        67        64        63        66        68
        64        63        66        69        65        63        66        67
        65        63        66        68        65        63        66        69
        66        69        72        73        66        69        72        74
        66        69        72        75        67        66        69        70
        67        66        69        71        67        66        69        72
        68        66        69        70        68        66        69        71
        68        66        69        72        69        72        75        76
        69        72        75        77        69        72        75        78
        70        69        72        73        70        69        72        74
        70        69        72        75        71        69        72        73
        71        69        72        74        71        69        72        75
        72        75        78        79        72        75        78        80
        72        75        78        81        73        72        75        76
        73        72        75        77        73        72        75        78
        74        72        75        76        74        72        75        77
        74        72        75        78        75        78        81        82
        75        78        81        83        75        78        81        84
        76        75        78        79        76        75        78        80
        76        75        78        81        77        75        78        79
        77        75        78        80        77        75        78        81
        78        81        84        85        78        81        84        86
        78        81        84        87        79        78        81        82
        79        78        81        83        79        78        81        84
        80        78        81        82        80        78        81        83
        80        78        81        84        82        81        84        85
        82        81        84        86        82        81        84        87
        83        81        84        85        83        81        84        86
        83        81        84        87        88        91        94        95
        88        91        94        96        88        91        94        97
        89        88        91        92        89        88        91        93
        89        88        91        94        90        88        91        92
        90        88        91        93        90        88        91        94
        91        94        97        98        91        94        97        99
        91        94        97       100        92        91        94        95
        92        91        94        96        92        91        94        97
        93        91        94        95        93        91        94        96
        93        91        94        97        94        97       100       101
        94        97       100       102        94        97       100       103
        95        94        97        98        95        94        97        99
        95        94        97       100        96        94        97        98
        96        94        97        99        96        94        97       100
        97       100       103       104        97       100       103       105
        97       100       103       106        98        97       100       101
        98        97       100       102        98        97       100       103
        99        97       100       101        99        97       100       102
        99        97       100       103       100       103       106       107
       100       103       106       108       100       103       106       109
       101       100       103       104       101       100       103       105
       101       100       103       106       102       100       103       104
       102       100       103       105       102       100       103       106
       103       106       109       110       103       106       109       111
       103       106       109       112       104       103       106       107
       104       103       106       108       104       103       106       109
       105       103       106       107       105       103       106       108
       105       103       106       109       106       109       112       113
       106       109       112       114       106       109       112       115
       107       106       109       110       107       106       109       111
       107       106       109       112       108       106       109       110
       108       106       109       111       108       106       109       112
       109       112       115       116       109       112       115       117
       109       112       115       118       110       109       112       113
       110       109       112       114       110       109       112       115
       111       109       112       113       111       109       112       114
       111       109       112       115       112       115       118       119
       112       115       118       120       112       115       118       121
       113       112       115       116       113       112       115       117
       113       112       115       118       114       112       115       116
       114       112       115       117       114       112       115       118
       115       118       121       122       115       118       121       123
       115       118       121       124       116       115       118       119
       116       115       118       120       116       115       118       121
       117       115       118       119       117       115       118       120
       117       115       118       121       118       121       124       125
       118       121       124       126       118       121       124       127
       119       118       121       122       119       118       121       123
       119       118       121       124       120       118       121       122
       120       118       121       123       120       118       121       124
       121       124       127       128       121       124       127       129
       121       124       127       130       122       121       124       125
       122       121       124       126       122       121       124       127
       123       121       124       125       123       121       124       126
       123       121       124       127       125       124       127       128
       125       124       127       129       125       124       127       130
       126       124       127       128       126       124       127       129
       126       124       127       130       131       144       147       148
       131       144       147       149       131       144       147       154
       132       131       136       137       132       131       136       138
       132       131       136       139       132       131       140       141
       132       131       140       142       132       131       140       143
       132       131       144       145       132       131       144       146
       132       131       144       147       133       132       131       136
       133       132       131       140       133       132       131       144
       134       132       131       136       134       132       131       140
       134       132       131       144       135       132       131       136
       135       132       131       140       135       132       131       144
       136       131       140       141       136       131       140       142
       136       131       140       143       136       131       144       145
       136       131       144       146       136       131       144       147
       137       136       131       140       137       136       131       144
       138       136       131       140       138       136       131       144
       139       136       131       140       139       136       131       144
       140       131       144       145       140       131       144       146
       140       131       144       147       141       140       131       144
       142       140       131       144       143       140       131       144
       144       147       154       150       145       144       147       148
       145       144       147       149       145       144       147       154
       146       144       147       148       146       144       147       149
       146       144       147       154       147       154       150       151
       147       154       150       152       147       154       150       153
       148       147       154       150       149       147       154       150
       150       153       155       156       150       153       155       157
       150       153       155       158       151       150       153       155
       152       150       153       155       153       155       158       159
       153       155       158       160       153       155       158       166
       154       150       153       155       155       158       160       161
       155       158       166       167       155       158       166       168
       155       158       166       169       156       155       158       159
       156       155       158       160       156       155       158       166
       157       155       158       159       157       155       158       160
       157       155       158       166       158       160       161       162
       158       160       161       163       158       166       169       170
       159       158       160       161       159       158       166       167
       159       158       166       168       159       158       166       169
       160       158       166       167       160       158       166       168
       160       158       166       169       160       161       163       164
       160       161       163       165       160       161       163       175
       161       160       158       166       161       163       175       176
       161       163       175       177       161       163       175       178
       162       161       163       164       162       161       163       165
       162       161       163       175       163       175       178       179
       163       175       178       180       163       175       178       181
       164       163       175       176       164       163       175       177
       164       163       175       178       165       163       175       176
       165       163       175       177       165       163       175       178
       166       169       170       171       166       169       170       172
       167       166       169       170       168       166       169       170
       169       170       172       173       169       170       172       174
       169       170       172       218       170       172       218       219
       170       172       218       220       170       172       218       221
       171       170       172       173       171       170       172       174
       171       170       172       218       172       218       221       222
       172       218       221       223       172       218       221       224
       173       172       218       219       173       172       218       220
       173       172       218       221       174       172       218       219
       174       172       218       220       174       172       218       221
       175       178       181       182       175       178       181       183
       175       178       181       184       176       175       178       179
       176       175       178       180       176       175       178       181
       177       175       178       179       177       175       178       180
       177       175       178       181       178       181       184       185
       178       181       184       186       178       181       184       187
       179       178       181       182       179       178       181       183
       179       178       181       184       180       178       181       182
       180       178       181       183       180       178       181       184
       181       184       187       188       181       184       187       189
       181       184       187       190       182       181       184       185
       182       181       184       186       182       181       184       187
       183       181       184       185       183       181       184       186
       183       181       184       187       184       187       190       191
       184       187       190       192       184       187       190       193
       185       184       187       188       185       184       187       189
       185       184       187       190       186       184       187       188
       186       184       187       189       186       184       187       190
       187       190       193       194       187       190       193       195
       187       190       193       196       188       187       190       191
       188       187       190       192       188       187       190       193
       189       187       190       191       189       187       190       192
       189       187       190       193       190       193       196       197
       190       193       196       198       190       193       196       199
       191       190       193       194       191       190       193       195
       191       190       193       196       192       190       193       194
       192       190       193       195       192       190       193       196
       193       196       199       200       193       196       199       201
       193       196       199       202       194       193       196       197
       194       193       196       198       194       193       196       199
       195       193       196       197       195       193       196       198
       195       193       196       199       196       199       202       203
       196       199       202       204       196       199       202       205
       197       196       199       200       197       196       199       201
       197       196       199       202       198       196       199       200
       198       196       199       201       198       196       199       202
       199       202       205       206       199       202       205       207
       199       202       205       208       200       199       202       203
       200       199       202       204       200       199       202       205
       201       199       202       203       201       199       202       204
       201       199       202       205       202       205       208       209
       202       205       208       210       202       205       208       211
       203       202       205       206       203       202       205       207
       203       202       205       208       204       202       205       206
       204       202       205       207       204       202       205       208
       205       208       211       212       205       208       211       213
       205       208       211       214       206       205       208       209
       206       205       208       210       206       205       208       211
       207       205       208       209       207       205       208       210
       207       205       208       211       208       211       214       215
       208       211       214       216       208       211       214       217
       209       208       211       212       209       208       211       213
       209       208       211       214       210       208       211       212
       210       208       211       213       210       208       211       214
       212       211       214       215       212       211       214       216
       212       211       214       217       213       211       214       215
       213       211       214       216       213       211       214       217
       218       221       224       225       218       221       224       226
       218       221       224       227       219       218       221       222
       219       218       221       223       219       218       221       224
       220       218       221       222       220       218       221       223
       220       218       221       224       221       224       227       228
       221       224       227       229       221       224       227       230
       222       221       224       225       222       221       224       226
       222       221       224       227       223       221       224       225
       223       221       224       226       223       221       224       227
       224       227       230       231       224       227       230       232
       224       227       230       233       225       224       227       228
       225       224       227       229       225       224       227       230
       226       224       227       228       226       224       227       229
       226       224       227       230       227       230       233       234
       227       230       233       235       227       230       233       236
       228       227       230       231       228       227       230       232
       228       227       230       233       229       227       230       231
       229       227       230       232       229       227       230       233
       230       233       236       237       230       233       236       238
       230       233       236       239       231       230       233       234
       231       230       233       235       231       230       233       236
       232       230       233       234       232       230       233       235
       232       230       233       236       233       236       239       240
       233       236       239       241       233       236       239       242
       234       233       236       237       234       233       236       238
       234       233       236       239       235       233       236       237
       235       233       236       238       235       233       236       239
       236       239       242       243       236       239       242       244
       236       239       242       245       237       236       239       240
       237       236       239       241       237       236       239       242
       238       236       239       240       238       236       239       241
       238       236       239       242       239       242       245       246
       239       242       245       247       239       242       245       248
       240       239       242       243       240       239       242       244
       240       239       242       245       241       239       242       243
       241       239       242       244       241       239       242       245
       242       245       248       249       242       245       248       250
       242       245       248       251       243       242       245       246
       243       242       245       247       243       242       245       248
       244       242       245       246       244       242       245       247
       244       242       245       248       245       248       251       252
       245       248       251       253       245       248       251       254
       246       245       248       249       246       245       248       250
       246       245       248       251       247       245       248       249
       247       245       248       250       247       245       248       251
       248       251       254       255       248       251       254       256
       248       251       254       257       249       248       251       252
       249       248       251       253       249       248       251       254
       250       248       251       252       250       248       251       253
       250       248       251       254       251       254       257       258
       251       254       257       259       251       254       257       260
       252       251       254       255       252       251       254       256
       252       251       254       257       253       251       254       255
       253       251       254       256       253       251       254       257
       255       254       257       258       255       254       257       259
       255       254       257       260       256       254       257       258
       256       254       257       259       256       254       257       260
       261       274       277       278       261       274       277       279
       261       274       277       284       262       261       266       267
       262       261       266       268       262       261       266       269
       262       261       270       271       262       261       270       272
       262       261       270       273       262       261       274       275
       262       261       274       276       262       261       274       277
       263       262       261       266       263       262       261       270
       263       262       261       274       264       262       261       266
       264       262       261       270       264       262       261       274
       265       262       261       266       265       262       261       270
       265       262       261       274       266       261       270       271
       266       261       270       272       266       261       270       273
       266       261       274       275       266       261       274       276
       266       261       274       277       267       266       261       270
       267       266       261       274       268       266       261       270
       268       266       261       274       269       266       261       270
       269       266       261       274       270       261       274       275
       270       261       274       276       270       261       274       277
       271       270       261       274       272       270       261       274
       273       270       261       274       274       277       284       280
       275       274       277       278       275       274       277       279
       275       274       277       284       276       274       277       278
       276       274       277       279       276       274       277       284
       277       284       280       281       277       284       280       282
       277       284       280       283       278       277       284       280
       279       277       284       280       280       283       285       286
       280       283       285       287       280       283       285       288
       281       280       283       285       282       280       283       285
       283       285       288       289       283       285       288       290
       283       285       288       296       284       280       283       285
       285       288       290       291       285       288       296       297
       285       288       296       298       285       288       296       299
       286       285       288       289       286       285       288       290
       286       285       288       296       287       285       288       289
       287       285       288       290       287       285       288       296
       288       290       291       292       288       290       291       293
       288       296       299       300       289       288       290       291
       289       288       296       297       289       288       296       298
       289       288       296       299       290       288       296       297
       290       288       296       298       290       288       296       299
       290       291       293       294       290       291       293       295
       290       291       293       305       291       290       288       296
       291       293       305       306       291       293       305       307
       291       293       305       308       292       291       293       294
       292       291       293       295       292       291       293       305
       293       305       308       309       293       305       308       310
       293       305       308       311       294       293       305       306
       294       293       305       307       294       293       305       308
       295       293       305       306       295       293       305       307
       295       293       305       308       296       299       300       301
       296       299       300       302       297       296       299       300
       298       296       299       300       299       300       302       303
       299       300       302       304       299       300       302       348
       300       302       348       349       300       302       348       350
       300       302       348       351       301       300       302       303
       301       300       302       304       301       300       302       348
       302       348       351       352       302       348       351       353
       302       348       351       354       303       302       348       349
       303       302       348       350       303       302       348       351
       304       302       348       349       304       302       348       350
       304       302       348       351       305       308       311       312
       305       308       311       313       305       308       311       314
       306       305       308       309       306       305       308       310
       306       305       308       311       307       305       308       309
       307       305       308       310       307       305       308       311
       308       311       314       315       308       311       314       316
       308       311       314       317       309       308       311       312
       309       308       311       313       309       308       311       314
       310       308       311       312       310       308       311       313
       310       308       311       314       311       314       317       318
       311       314       317       319       311       314       317       320
       312       311       314       315       312       311       314       316
       312       311       314       317       313       311       314       315
       313       311       314       316       313       311       314       317
       314       317       320       321       314       317       320       322
       314       317       320       323       315       314       317       318
       315       314       317       319       315       314       317       320
       316       314       317       318       316       314       317       319
       316       314       317       320       317       320       323       324
       317       320       323       325       317       320       323       326
       318       317       320       321       318       317       320       322
       318       317       320       323       319       317       320       321
       319       317       320       322       319       317       320       323
       320       323       326       327       320       323       326       328
       320       323       326       329       321       320       323       324
       321       320       323       325       321       320       323       326
       322       320       323       324       322       320       323       325
       322       320       323       326       323       326       329       330
       323       326       329       331       323       326       329       332
       324       323       326       327       324       323       326       328
       324       323       326       329       325       323       326       327
       325       323       326       328       325       323       326       329
       326       329       332       333       326       329       332       334
       326       329       332       335       327       326       329       330
       327       326       329       331       327       326       329       332
       328       326       329       330       328       326       329       331
       328       326       329       332       329       332       335       336
       329       332       335       337       329       332       335       338
       330       329       332       333       330       329       332       334
       330       329       332       335       331       329       332       333
       331       329       332       334       331       329       332       335
       332       335       338       339       332       335       338       340
       332       335       338       341       333       332       335       336
       333       332       335       337       333       332       335       338
       334       332       335       336       334       332       335       337
       334       332       335       338       335       338       341       342
       335       338       341       343       335       338       341       344
       336       335       338       339       336       335       338       340
       336       335       338       341       337       335       338       339
       337       335       338       340       337       335       338       341
       338       341       344       345       338       341       344       346
       338       341       344       347       339       338       341       342
       339       338       341       343       339       338       341       344
       340       338       341       342       340       338       341       343
       340       338       341       344       342       341       344       345
       342       341       344       346       342       341       344       347
       343       341       344       345       343       341       344       346
       343       341       344       347       348       351       354       355
       348       351       354       356       348       351       354       357
       349       348       351       352       349       348       351       353
       349       348       351       354       350       348       351       352
       350       348       351       353       350       348       351       354
       351       354       357       358       351       354       357       359
       351       354       357       360       352       351       354       355
       352       351       354       356       352       351       354       357
       353       351       354       355       353       351       354       356
       353       351       354       357       354       357       360       361
       354       357       360       362       354       357       360       363
       355       354       357       358       355       354       357       359
       355       354       357       360       356       354       357       358
       356       354       357       359       356       354       357       360
       357       360       363       364       357       360       363       365
       357       360       363       366       358       357       360       361
       358       357       360       362       358       357       360       363
       359       357       360       361       359       357       360       362
       359       357       360       363       360       363       366       367
       360       363       366       368       360       363       366       369
       361       360       363       364       361       360       363       365
       361       360       363       366       362       360       363       364
       362       360       363       365       362       360       363       366
       363       366       369       370       363       366       369       371
       363       366       369       372       364       363       366       367
       364       363       366       368       364       363       366       369
       365       363       366       367       365       363       366       368
       365       363       366       369       366       369       372       373
       366       369       372       374       366       369       372       375
       367       366       369       370       367       366       369       371
       367       366       369       372       368       366       369       370
       368       366       369       371       368       366       369       372
       369       372       375       376       369       372       375       377
       369       372       375       378       370       369       372       373
       370       369       372       374       370       369       372       375
       371       369       372       373       371       369       372       374
       371       369       372       375       372       375       378       379
       372       375       378       380       372       375       378       381
       373       372       375       376       373       372       375       377
       373       372       375       378       374       372       375       376
       374       372       375       377       374       372       375       378
       375       378       381       382       375       378       381       383
       375       378       381       384       376       375       378       379
       376       375       378       380       376       375       378       381
       377       375       378       379       377       375       378       380
       377       375       378       381       378       381       384       385
       378       381       384       386       378       381       384       387
       379       378       381       382       379       378       381       383
       379       378       381       384       380       378       381       382
       380       378       381       383       380       378       381       384
       381       384       387       388       381       384       387       389
       381       384       387       390       382       381       384       385
       382       381       384       386       382       381       384       387
       383       381       384       385       383       381       384       386
       383       381       384       387       385       384       387       388
       385       384       387       389       385       384       387       390
       386       384       387       388       386       384       387       389
       386       384       387       390       391       404       407       408
       391       404       407       409       391       404       407       414
       392       391       396       397       392       391       396       398
       392       391       396       399       392       391       400       401
       392       391       400       402       392       391       400       403
       392       391       404       405       392       391       404       406
       392       391       404       407       393       392       391       396
       393       392       391       400       393       392       391       404
       394       392       391       396       394       392       391       400
       394       392       391       404       395       392       391       396
       395       392       391       400       395       392       391       404
       396       391       400       401       396       391       400       402
       396       391       400       403       396       391       404       405
       396       391       404       406       396       391       404       407
       397       396       391       400       397       396       391       404
       398       396       391       400       398       396       391       404
       399       396       391       400       399       396       391       404
       400       391       404       405       400       391       404       406
       400       391       404       407       401       400       391       404
       402       400       391       404       403       400       391       404
       404       407       414       410       405       404       407       408
       405       404       407       409       405       404       407       414
       406       404       407       408       406       404       407       409
       406       404       407       414       407       414       410       411
       407       414       410       412       407       414       410       413
       408       407       414       410       409       407       414       410
       410       413       415       416       410       413       415       417
       410       413       415       418       411       410       413       415
       412       410       413       415       413       415       418       419
       413       415       418       420       413       415       418       426
       414       410       413       415       415       418       420       421
       415       418       426       427       415       418       426       428
       415       418       426       429       416       415       418       419
       416       415       418       420       416       415       418       426
       417       415       418       419       417       415       418       420
       417       415       418       426       418       420       421       422
       418       420       421       423       418       426       429       430
       419       418       420       421       419       418       426       427
       419       418       426       428       419       418       426       429
       420       418       426       427       420       418       426       428
       420       418       426       429       420       421       423       424
       420       421       423       425       420       421       423       435
       421       420       418       426       421       423       435       436
       421       423       435       437       421       423       435       438
       422       421       423       424       422       421       423       425
       422       421       423       435       423       435       438       439
       423       435       438       440       423       435       438       441
       424       423       435       436       424       423       435       437
       424       423       435       438       425       423       435       436
       425       423       435       437       425       423       435       438
       426       429       430       431       426       429       430       432
       427       426       429       430       428       426       429       430
       429       430       432       433       429       430       432       434
       429       430       432       478       430       432       478       479
       430       432       478       480       430       432       478       481
       431       430       432       433       431       430       432       434
       431       430       432       478       432       478       481       482
       432       478       481       483       432       478       481       484
       433       432       478       479       433       432       478       480
       433       432       478       481       434       432       478       479
       434       432       478       480       434       432       478       481
       435       438       441       442       435       438       441       443
       435       438       441       444       436       435       438       439
       436       435       438       440       436       435       438       441
       437       435       438       439       437       435       438       440
       437       435       438       441       438       441       444       445
       438       441       444       446       438       441       444       447
       439       438       441       442       439       438       441       443
       439       438       441       444       440       438       441       442
       440       438       441       443       440       438       441       444
       441       444       447       448       441       444       447       449
       441       444       447       450       442       441       444       445
       442       441       444       446       442       441       444       447
       443       441       444       445       443       441       444       446
       443       441       444       447       444       447       450       451
       444       447       450       452       444       447       450       453
       445       444       447       448       445       444       447       449
       445       444       447       450       446       444       447       448
       446       444       447       449       446       444       447       450
       447       450       453       454       447       450       453       455
       447       450       453       456       448       447       450       451
       448       447       450       452       448       447       450       453
       449       447       450       451       449       447       450       452
       449       447       450       453       450       453       456       457
       450       453       456       458       450       453       456       459
       451       450       453       454       451       450       453       455
       451       450       453       456       452       450       453       454
       452       450       453       455       452       450       453       456
       453       456       459       460       453       456       459       461
       453       456       459       462       454       453       456       457
       454       453       456       458       454       453       456       459
       455       453       456       457       455       453       456       458
       455       453       456       459       456       459       462       463
       456       459       462       464       456       459       462       465
       457       456       459       460       457       456       459       461
       457       456       459       462       458       456       459       460
       458       456       459       461       458       456       459       462
       459       462       465       466       459       462       465       467
       459       462       465       468       460       459       462       463
       460       459       462       464       460       459       462       465
       461       459       462       463       461       459       462       464
       461       459       462       465       462       465       468       469
       462       465       468       470       462       465       468       471
       463       462       465       466       463       462       465       467
       463       462       465       468       464       462       465       466
       464       462       465       467       464       462       465       468
       465       468       471       472       465       468       471       473
       465       468       471       474       466       465       468       469
       466       465       468       470       466       465       468       471
       467       465       468       469       467       465       468       470
       467       465       468       471       468       471       474       475
       468       471       474       476       468       471       474       477
       469       468       471       472       469       468       471       473
       469       468       471       474       470       468       471       472
       470       468       471       473       470       468       471       474
       472       471       474       475       472       471       474       476
       472       471       474       477       473       471       474       475
       473       471       474       476       473       471       474       477
       478       481       484       485       478       481       484       486
       478       481       484       487       479       478       481       482
       479       478       481       483       479       478       481       484
       480       478       481       482       480       478       481       483
       480       478       481       484       481       484       487       488
       481       484       487       489       481       484       487       490
       482       481       484       485       482       481       484       486
       482       481       484       487       483       481       484       485
       483       481       484       486       483       481       484       487
       484       487       490       491       484       487       490       492
       484       487       490       493       485       484       487       488
       485       484       487       489       485       484       487       490
       486       484       487       488       486       484       487       489
       486       484       487       490       487       490       493       494
       487       490       493       495       487       490       493       496
       488       487       490       491       488       487       490       492
       488       487       490       493       489       487       490       491
       489       487       490       492       489       487       490       493
       490       493       496       497       490       493       496       498
       490       493       496       499       491       490       493       494
       491       490       493       495       491       490       493       496
       492       490       493       494       492       490       493       495
       492       490       493       496       493       496       499       500
       493       496       499       501       493       496       499       502
       494       493       496       497       494       493       496       498
       494       493       496       499       495       493       496       497
       495       493       496       498       495       493       496       499
       496       499       502       503       496       499       502       504
       496       499       502       505       497       496       499       500
       497       496       499       501       497       496       499       502
       498       496       499       500       498       496       499       501
       498       496       499       502       499       502       505       506
       499       502       505       507       499       502       505       508
       500       499       502       503       500       499       502       504
       500       499       502       505       501       499       502       503
       501       499       502       504       501       499       502       505
       502       505       508       509       502       505       508       510
       502       505       508       511       503       502       505       506
       503       502       505       507       503       502       505       508
       504       502       505       506       504       502       505       507
       504       502       505       508       505       508       511       512
       505       508       511       513       505       508       511       514
       506       505       508       509       506       505       508       510
       506       505       508       511       507       505       508       509
       507       505       508       510       507       505       508       511
       508       511       514       515       508       511       514       516
       508       511       514       517       509       508       511       512
       509       508       511       513       509       508       511       514
       510       508       511       512       510       508       511       513
       510       508       511       514       511       514       517       518
       511       514       517       519       511       514       517       520
       512       511       514       515       512       511       514       516
       512       511       514       517       513       511       514       515
       513       511       514       516       513       511       514       517
       515       514       517       518       515       514       517       519
       515       514       517       520       516       514       517       518
       516       514       517       519       516       514       517       520
       521       534       537       538       521       534       537       539
       521       534       537       544       522       521       526       527
       522       521       526       528       522       521       526       529
       522       521       530       531       522       521       530       532
       522       521       530       533       522       521       534       535
       522       521       534       536       522       521       534       537
       523       522       521       526       523       522       521       530
       523       522       521       534       524       522       521       526
       524       522       521       530       524       522       521       534
       525       522       521       526       525       522       521       530
       525       522       521       534       526       521       530       531
       526       521       530       532       526       521       530       533
       526       521       534       535       526       521       534       536
       526       521       534       537       527       526       521       530
       527       526       521       534       528       526       521       530
       528       526       521       534       529       526       521       530
       529       526       521       534       530       521       534       535
       530       521       534       536       530       521       534       537
       531       530       521       534       532       530       521       534
       533       530       521       534       534       537       544       540
       535       534       537       538       535       534       537       539
       535       534       537       544       536       534       537       538
       536       534       537       539       536       534       537       544
       537       544       540       541       537       544       540       542
       537       544       540       543       538       537       544       540
       539       537       544       540       540       543       545       546
       540       543       545       547       540       543       545       548
       541       540       543       545       542       540       543       545
       543       545       548       549       543       545       548       550
       543       545       548       556       544       540       543       545
       545       548       550       551       545       548       556       557
       545       548       556       558       545       548       556       559
       546       545       548       549       546       545       548       550
       546       545       548       556       547       545       548       549
       547       545       548       550       547       545       548       556
       548       550       551       552       548       550       551       553
       548       556       559       560       549       548       550       551
       549       548       556       557       549       548       556       558
       549       548       556       559       550       548       556       557
       550       548       556       558       550       548       556       559
       550       551       553       554       550       551       553       555
       550       551       553       565       551       550       548       556
       551       553       565       566       551       553       565       567
       551       553       565       568       552       551       553       554
       552       551       553       555       552       551       553       565
       553       565       568       569       553       565       568       570
       553       565       568       571       554       553       565       566
       554       553       565       567       554       553       565       568
       555       553       565       566       555       553       565       567
       555       553       565       568       556       559       560       561
       556       559       560       562       557       556       559       560
       558       556       559       560       559       560       562       563
       559       560       562       564       559       560       562       608
       560       562       608       609       560       562       608       610
       560       562       608       611       561       560       562       563
       561       560       562       564       561       560       562       608
       562       608       611       612       562       608       611       613
       562       608       611       614       563       562       608       609
       563       562       608       610       563       562       608       611
       564       562       608       609       564       562       608       610
       564       562       608       611       565       568       571       572
       565       568       571       573       565       568       571       574
       566       565       568       569       566       565       568       570
       566       565       568       571       567       565       568       569
       567       565       568       570       567       565       568       571
       568       571       574       575       568       571       574       576
       568       571       574       577       569       568       571       572
       569       568       571       573       569       568       571       574
       570       568       571       572       570       568       571       573
       570       568       571       574       571       574       577       578
       571       574       577       579       571       574       577       580
       572       571       574       575       572       571       574       576
       572       571       574       577       573       571       574       575
       573       571       574       576       573       571       574       577
       574       577       580       581       574       577       580       582
       574       577       580       583       575       574       577       578
       575       574       577       579       575       574       577       580
       576       574       577       578       576       574       577       579
       576       574       577       580       577       580       583       584
       577       580       583       585       577       580       583       586
       578       577       580       581       578       577       580       582
       578       577       580       583       579       577       580       581
       579       577       580       582       579       577       580       583
       580       583       586       587       580       583       586       588
       580       583       586       589       581       580       583       584
       581       580       583       585       581       580       583       586
       582       580       583       584       582       580       583       585
       582       580       583       586       583       586       589       590
       583       586       589       591       583       586       589       592
       584       583       586       587       584       583       586       588
       584       583       586       589       585       583       586       587
       585       583       586       588       585       583       586       589
       586       589       592       593       586       589       592       594
       586       589       592       595       587       586       589       590
       587       586       589       591       587       586       589       592
       588       586       589       590       588       586       589       591
       588       586       589       592       589       592       595       596
       589       592       595       597       589       592       595       598
       590       589       592       593       590       589       592       594
       590       589       592       595       591       589       592       593
       591       589       592       594       591       589       592       595
       592       595       598       599       592       595       598       600
       592       595       598       601       593       592       595       596
       593       592       595       597       593       592       595       598
       594       592       595       596       594       592       595       597
       594       592       595       598       595       598       601       602
       595       598       601       603       595       598       601       604
       596       595       598       599       596       595       598       600
       596       595       598       601       597       595       598       599
       597       595       598       600       597       595       598       601
       598       601       604       605       598       601       604       606
       598       601       604       607       599       598       601       602
       599       598       601       603       599       598       601       604
       600       598       601       602       600       598       601       603
       600       598       601       604       602       601       604       605
       602       601       604       606       602       601       604       607
       603       601       604       605       603       601       604       606
       603       601       604       607       608       611       614       615
       608       611       614       616       608       611       614       617
       609       608       611       612       609       608       611       613
       609       608       611       614       610       608       611       612
       610       608       611       613       610       608       611       614
       611       614       617       618       611       614       617       619
       611       614       617       620       612       611       614       615
       612       611       614       616       612       611       614       617
       613       611       614       615       613       611       614       616
       613       611       614       617       614       617       620       621
       614       617       620       622       614       617       620       623
       615       614       617       618       615       614       617       619
       615       614       617       620       616       614       617       618
       616       614       617       619       616       614       617       620
       617       620       623       624       617       620       623       625
       617       620       623       626       618       617       620       621
       618       617       620       622       618       617       620       623
       619       617       620       621       619       617       620       622
       619       617       620       623       620       623       626       627
       620       623       626       628       620       623       626       629
       621       620       623       624       621       620       623       625
       621       620       623       626       622       620       623       624
       622       620       623       625       622       620       623       626
       623       626       629       630       623       626       629       631
       623       626       629       632       624       623       626       627
       624       623       626       628       624       623       626       629
       625       623       626       627       625       623       626       628
       625       623       626       629       626       629       632       633
       626       629       632       634       626       629       632       635
       627       626       629       630       627       626       629       631
       627       626       629       632       628       626       629       630
       628       626       629       631       628       626       629       632
       629       632       635       636       629       632       635       637
       629       632       635       638       630       629       632       633
       630       629       632       634       630       629       632       635
       631       629       632       633       631       629       632       634
       631       629       632       635       632       635       638       639
       632       635       638       640       632       635       638       641
       633       632       635       636       633       632       635       637
       633       632       635       638       634       632       635       636
       634       632       635       637       634       632       635       638
       635       638       641       642       635       638       641       643
       635       638       641       644       636       635       638       639
       636       635       638       640       636       635       638       641
       637       635       638       639       637       635       638       640
       637       635       638       641       638       641       644       645
       638       641       644       646       638       641       644       647
       639       638       641       642       639       638       641       643
       639       638       641       644       640       638       641       642
       640       638       641       643       640       638       641       644
       641       644       647       648       641       644       647       649
       641       644       647       650       642       641       644       645
       642       641       644       646       642       641       644       647
       643       641       644       645       643       641       644       646
       643       641       644       647       645       644       647       648
       645       644       647       649       645       644       647       650
       646       644       647       648       646       644       647       649
       646       644       647       650       651       664       667       668
       651       664       667       669       651       664       667       674
       652       651       656       657       652       651       656       658
       652       651       656       659       652       651       660       661
       652       651       660       662       652       651       660       663
       652       651       664       665       652       651       664       666
       652       651       664       667       653       652       651       656
       653       652       651       660       653       652       651       664
       654       652       651       656       654       652       651       660
       654       652       651       664       655       652       651       656
       655       652       651       660       655       652       651       664
       656       651       660       661       656       651       660       662
       656       651       660       663       656       651       664       665
       656       651       664       666       656       651       664       667
       657       656       651       660       657       656       651       664
       658       656       651       660       658       656       651       664
       659       656       651       660       659       656       651       664
       660       651       664       665       660       651       664       666
       660       651       664       667       661       660       651       664
       662       660       651       664       663       660       651       664
       664       667       674       670       665       664       667       668
       665       664       667       669       665       664       667       674
       666       664       667       668       666       664       667       669
       666       664       667       674       667       674       670       671
       667       674       670       672       667       674       670       673
       668       667       674       670       669       667       674       670
       670       673       675       676       670       673       675       677
       670       673       675       678       671       670       673       675
       672       670       673       675       673       675       678       679
       673       675       678       680       673       675       678       686
       674       670       673       675       675       678       680       681
       675       678       686       687       675       678       686       688
       675       678       686       689       676       675       678       679
       676       675       678       680       676       675       678       686
       677       675       678       679       677       675       678       680
       677       675       678       686       678       680       681       682
       678       680       681       683       678       686       689       690
       679       678       680       681       679       678       686       687
       679       678       686       688       679       678       686       689
       680       678       686       687       680       678       686       688
       680       678       686       689       680       681       683       684
       680       681       683       685       680       681       683       695
       681       680       678       686       681       683       695       696
       681       683       695       697       681       683       695       698
       682       681       683       684       682       681       683       685
       682       681       683       695       683       695       698       699
       683       695       698       700       683       695       698       701
       684       683       695       696       684       683       695       697
       684       683       695       698       685       683       695       696
       685       683       695       697       685       683       695       698
       686       689       690       691       686       689       690       692
       687       686       689       690       688       686       689       690
       689       690       692       693       689       690       692       694
       689       690       692       738       690       692       738       739
       690       692       738       740       690       692       738       741
       691       690       692       693       691       690       692       694
       691       690       692       738       692       738       741       742
       692       738       741       743       692       738       741       744
       693       692       738       739       693       692       738       740
       693       692       738       741       694       692       738       739
       694       692       738       740       694       692       738       741
       695       698       701       702       695       698       701       703
       695       698       701       704       696       695       698       699
       696       695       698       700       696       695       698       701
       697       695       698       699       697       695       698       700
       697       695       698       701       698       701       704       705
       698       701       704       706       698       701       704       707
       699       698       701       702       699       698       701       703
       699       698       701       704       700       698       701       702
       700       698       701       703       700       698       701       704
       701       704       707       708       701       704       707       709
       701       704       707       710       702       701       704       705
       702       701       704       706       702       701       704       707
       703       701       704       705       703       701       704       706
       703       701       704       707       704       707       710       711
       704       707       710       712       704       707       710       713
       705       704       707       708       705       704       707       709
       705       704       707       710       706       704       707       708
       706       704       707       709       706       704       707       710
       707       710       713       714       707       710       713       715
       707       710       713       716       708       707       710       711
       708       707       710       712       708       707       710       713
       709       707       710       711       709       707       710       712
       709       707       710       713       710       713       716       717
       710       713       716       718       710       713       716       719
       711       710       713       714       711       710       713       715
       711       710       713       716       712       710       713       714
       712       710       713       715       712       710       713       716
       713       716       719       720       713       716       719       721
       713       716       719       722       714       713       716       717
       714       713       716       718       714       713       716       719
       715       713       716       717       715       713       716       718
       715       713       716       719       716       719       722       723
       716       719       722       724       716       719       722       725
       717       716       719       720       717       716       719       721
       717       716       719       722       718       716       719       720
       718       716       719       721       718       716       719       722
       719       722       725       726       719       722       725       727
       719       722       725       728       720       719       722       723
       720       719       722       724       720       719       722       725
       721       719       722       723       721       719       722       724
       721       719       722       725       722       725       728       729
       722       725       728       730       722       725       728       731
       723       722       725       726       723       722       725       727
       723       722       725       728       724       722       725       726
       724       722       725       727       724       722       725       728
       725       728       731       732       725       728       731       733
       725       728       731       734       726       725       728       729
       726       725       728       730       726       725       728       731
       727       725       728       729       727       725       728       730
       727       725       728       731       728       731       734       735
       728       731       734       736       728       731       734       737
       729       728       731       732       729       728       731       733
       729       728       731       734       730       728       731       732
       730       728       731       733       730       728       731       734
       732       731       734       735       732       731       734       736
       732       731       734       737       733       731       734       735
       733       731       734       736       733       731       734       737
       738       741       744       745       738       741       744       746
       738       741       744       747       739       738       741       742
       739       738       741       743       739       738       741       744
       740       738       741       742       740       738       741       743
       740       738       741       744       741       744       747       748
       741       744       747       749       741       744       747       750
       742       741       744       745       742       741       744       746
       742       741       744       747       743       741       744       745
       743       741       744       746       743       741       744       747
       744       747       750       751       744       747       750       752
       744       747       750       753       745       744       747       748
       745       744       747       749       745       744       747       750
       746       744       747       748       746       744       747       749
       746       744       747       750       747       750       753       754
       747       750       753       755       747       750       753       756
       748       747       750       751       748       747       750       752
       748       747       750       753       749       747       750       751
       749       747       750       752       749       747       750       753
       750       753       756       757       750       753       756       758
       750       753       756       759       751       750       753       754
       751       750       753       755       751       750       753       756
       752       750       753       754       752       750       753       755
       752       750       753       756       753       756       759       760
       753       756       759       761       753       756       759       762
       754       753       756       757       754       753       756       758
       754       753       756       759       755       753       756       757
       755       753       756       758       755       753       756       759
       756       759       762       763       756       759       762       764
       756       759       762       765       757       756       759       760
       757       756       759       761       757       756       759       762
       758       756       759       760       758       756       759       761
       758       756       759       762       759       762       765       766
       759       762       765       767       759       762       765       768
       760       759       762       763       760       759       762       764
       760       759       762       765       761       759       762       763
       761       759       762       764       761       759       762       765
       762       765       768       769       762       765       768       770
       762       765       768       771       763       762       765       766
       763       762       765       767       763       762       765       768
       764       762       765       766       764       762       765       767
       764       762       765       768       765       768       771       772
       765       768       771       773       765       768       771       774
       766       765       768       769       766       765       768       770
       766       765       768       771       767       765       768       769
       767       765       768       770       767       765       768       771
       768       771       774       775       768       771       774       776
       768       771       774       777       769       768       771       772
       769       768       771       773       769       768       771       774
       770       768       771       772       770       768       771       773
       770       768       771       774       771       774       777       778
       771       774       777       779       771       774       777       780
       772       771       774       775       772       771       774       776
       772       771       774       777       773       771       774       775
       773       771       774       776       773       771       774       777
       775       774       777       778       775       774       777       779
       775       774       777       780       776       774       777       778
       776       774       777       779       776       774       777       780
       781       794       797       798       781       794       797       799
       781       794       797       804       782       781       786       787
       782       781       786       788       782       781       786       789
       782       781       790       791       782       781       790       792
       782       781       790       793       782       781       794       795
       782       781       794       796       782       781       794       797
       783       782       781       786       783       782       781       790
       783       782       781       794       784       782       781       786
       784       782       781       790       784       782       781       794
       785       782       781       786       785       782       781       790
       785       782       781       794       786       781       790       791
       786       781       790       792       786       781       790       793
       786       781       794       795       786       781       794       796
       786       781       794       797       787       786       781       790
       787       786       781       794       788       786       781       790
       788       786       781       794       789       786       781       790
       789       786       781       794       790       781       794       795
       790       781       794       796       790       781       794       797
       791       790       781       794       792       790       781       794
       793       790       781       794       794       797       804       800
       795       794       797       798       795       794       797       799
       795       794       797       804       796       794       797       798
       796       794       797       799       796       794       797       804
       797       804       800       801       797       804       800       802
       797       804       800       803       798       797       804       800
       799       797       804       800       800       803       805       806
       800       803       805       807       800       803       805       808
       801       800       803       805       802       800       803       805
       803       805       808       809       803       805       808       810
       803       805       808       816       804       800       803       805
       805       808       810       811       805       808       816       817
       805       808       816       818       805       808       816       819
       806       805       808       809       806       805       808       810
       806       805       808       816       807       805       808       809
       807       805       808       810       807       805       808       816
       808       810       811       812       808       810       811       813
       808       816       819       820       809       808       810       811
       809       808       816       817       809       808       816       818
       809       808       816       819       810       808       816       817
       810       808       816       818       810       808       816       819
       810       811       813       814       810       811       813       815
       810       811       813       825       811       810       808       816
       811       813       825       826       811       813       825       827
       811       813       825       828       812       811       813       814
       812       811       813       815       812       811       813       825
       813       825       828       829       813       825       828       830
       813       825       828       831       814       813       825       826
       814       813       825       827       814       813       825       828
       815       813       825       826       815       813       825       827
       815       813       825       828       816       819       820       821
       816       819       820       822       817       816       819       820
       818       816       819       820       819       820       822       823
       819       820       822       824       819       820       822       868
       820       822       868       869       820       822       868       870
       820       822       868       871       821       820       822       823
       821       820       822       824       821       820       822       868
       822       868       871       872       822       868       871       873
       822       868       871       874       823       822       868       869
       823       822       868       870       823       822       868       871
       824       822       868       869       824       822       868       870
       824       822       868       871       825       828       831       832
       825       828       831       833       825       828       831       834
       826       825       828       829       826       825       828       830
       826       825       828       831       827       825       828       829
       827       825       828       830       827       825       828       831
       828       831       834       835       828       831       834       836
       828       831       834       837       829       828       831       832
       829       828       831       833       829       828       831       834
       830       828       831       832       830       828       831       833
       830       828       831       834       831       834       837       838
       831       834       837       839       831       834       837       840
       832       831       834       835       832       831       834       836
       832       831       834       837       833       831       834       835
       833       831       834       836       833       831       834       837
       834       837       840       841       834       837       840       842
       834       837       840       843       835       834       837       838
       835       834       837       839       835       834       837       840
       836       834       837       838       836       834       837       839
       836       834       837       840       837       840       843       844
       837       840       843       845       837       840       843       846
       838       837       840       841       838       837       840       842
       838       837       840       843       839       837       840       841
       839       837       840       842       839       837       840       843
       840       843       846       847       840       843       846       848
       840       843       846       849       841       840       843       844
       841       840       843       845       841       840       843       846
       842       840       843       844       842       840       843       845
       842       840       843       846       843       846       849       850
       843       846       849       851       843       846       849       852
       844       843       846       847       844       843       846       848
       844       843       846       849       845       843       846       847
       845       843       846       848       845       843       846       849
       846       849       852       853       846       849       852       854
       846       849       852       855       847       846       849       850
       847       846       849       851       847       846       849       852
       848       846       849       850       848       846       849       851
       848       846       849       852       849       852       855       856
       849       852       855       857       849       852       855       858
       850       849       852       853       850       849       852       854
       850       849       852       855       851       849       852       853
       851       849       852       854       851       849       852       855
       852       855       858       859       852       855       858       860
       852       855       858       861       853       852       855       856
       853       852       855       857       853       852       855       858
       854       852       855       856       854       852       855       857
       854       852       855       858       855       858       861       862
       855       858       861       863       855       858       861       864
       856       855       858       859       856       855       858       860
       856       855       858       861       857       855       858       859
       857       855       858       860       857       855       858       861
       858       861       864       865       858       861       864       866
       858       861       864       867       859       858       861       862
       859       858       861       863       859       858       861       864
       860       858       861       862       860       858       861       863
       860       858       861       864       862       861       864       865
       862       861       864       866       862       861       864       867
       863       861       864       865       863       861       864       866
       863       861       864       867       868       871       874       875
       868       871       874       876       868       871       874       877
       869       868       871       872       869       868       871       873
       869       868       871       874       870       868       871       872
       870       868       871       873       870       868       871       874
       871       874       877       878       871       874       877       879
       871       874       877       880       872       871       874       875
       872       871       874       876       872       871       874       877
       873       871       874       875       873       871       874       876
       873       871       874       877       874       877       880       881
       874       877       880       882       874       877       880       883
       875       874       877       878       875       874       877       879
       875       874       877       880       876       874       877       878
       876       874       877       879       876       874       877       880
       877       880       883       884       877       880       883       885
       877       880       883       886       878       877       880       881
       878       877       880       882       878       877       880       883
       879       877       880       881       879       877       880       882
       879       877       880       883       880       883       886       887
       880       883       886       888       880       883       886       889
       881       880       883       884       881       880       883       885
       881       880       883       886       882       880       883       884
       882       880       883       885       882       880       883       886
       883       886       889       890       883       886       889       891
       883       886       889       892       884       883       886       887
       884       883       886       888       884       883       886       889
       885       883       886       887       885       883       886       888
       885       883       886       889       886       889       892       893
       886       889       892       894       886       889       892       895
       887       886       889       890       887       886       889       891
       887       886       889       892       888       886       889       890
       888       886       889       891       888       886       889       892
       889       892       895       896       889       892       895       897
       889       892       895       898       890       889       892       893
       890       889       892       894       890       889       892       895
       891       889       892       893       891       889       892       894
       891       889       892       895       892       895       898       899
       892       895       898       900       892       895       898       901
       893       892       895       896       893       892       895       897
       893       892       895       898       894       892       895       896
       894       892       895       897       894       892       895       898
       895       898       901       902       895       898       901       903
       895       898       901       904       896       895       898       899
       896       895       898       900       896       895       898       901
       897       895       898       899       897       895       898       900
       897       895       898       901       898       901       904       905
       898       901       904       906       898       901       904       907
       899       898       901       902       899       898       901       903
       899       898       901       904       900       898       901       902
       900       898       901       903       900       898       901       904
       901       904       907       908       901       904       907       909
       901       904       907       910       902       901       904       905
       902       901       904       906       902       901       904       907
       903       901       904       905       903       901       904       906
       903       901       904       907       905       904       907       908
       905       904       907       909       905       904       907       910
       906       904       907       908       906       904       907       909
       906       904       907       910       911       924       927       928
       911       924       927       929       911       924       927       934
       912       911       916       917       912       911       916       918
       912       911       916       919       912       911       920       921
       912       911       920       922       912       911       920       923
       912       911       924       925       912       911       924       926
       912       911       924       927       913       912       911       916
       913       912       911       920       913       912       911       924
       914       912       911       916       914       912       911       920
       914       912       911       924       915       912       911       916
       915       912       911       920       915       912       911       924
       916       911       920       921       916       911       920       922
       916       911       920       923       916       911       924       925
       916       911       924       926       916       911       924       927
       917       916       911       920       917       916       911       924
       918       916       911       920       918       916       911       924
       919       916       911       920       919       916       911       924
       920       911       924       925       920       911       924       926
       920       911       924       927       921       920       911       924
       922       920       911       924       923       920       911       924
       924       927       934       930       925       924       927       928
       925       924       927       929       925       924       927       934
       926       924       927       928       926       924       927       929
       926       924       927       934       927       934       930       931
       927       934       930       932       927       934       930       933
       928       927       934       930       929       927       934       930
       930       933       935       936       930       933       935       937
       930       933       935       938       931       930       933       935
       932       930       933       935       933       935       938       939
       933       935       938       940       933       935       938       946
       934       930       933       935       935       938       940       941
       935       938       946       947       935       938       946       948
       935       938       946       949       936       935       938       939
       936       935       938       940       936       935       938       946
       937       935       938       939       937       935       938       940
       937       935       938       946       938       940       941       942
       938       940       941       943       938       946       949       950
       939       938       940       941       939       938       946       947
       939       938       946       948       939       938       946       949
       940       938       946       947       940       938       946       948
       940       938       946       949       940       941       943       944
       940       941       943       945       940       941       943       955
       941       940       938       946       941       943       955       956
       941       943       955       957       941       943       955       958
       942       941       943       944       942       941       943       945
       942       941       943       955       943       955       958       959
       943       955       958       960       943       955       958       961
       944       943       955       956       944       943       955       957
       944       943       955       958       945       943       955       956
       945       943       955       957       945       943       955       958
       946       949       950       951       946       949       950       952
       947       946       949       950       948       946       949       950
       949       950       952       953       949       950       952       954
       949       950       952       998       950       952       998       999
       950       952       998      1000       950       952       998      1001
       951       950       952       953       951       950       952       954
       951       950       952       998       952       998      1001      1002
       952       998      1001      1003       952       998      1001      1004
       953       952       998       999       953       952       998      1000
       953       952       998      1001       954       952       998       999
       954       952       998      1000       954       952       998      1001
       955       958       961       962       955       958       961       963
       955       958       961       964       956       955       958       959
       956       955       958       960       956       955       958       961
       957       955       958       959       957       955       958       960
       957       955       958       961       958       961       964       965
       958       961       964       966       958       961       964       967
       959       958       961       962       959       958       961       963
       959       958       961       964       960       958       961       962
       960       958       961       963       960       958       961       964
       961       964       967       968       961       964       967       969
       961       964       967       970       962       961       964       965
       962       961       964       966       962       961       964       967
       963       961       964       965       963       961       964       966
       963       961       964       967       964       967       970       971
       964       967       970       972       964       967       970       973
       965       964       967       968       965       964       967       969
       965       964       967       970       966       964       967       968
       966       964       967       969       966       964       967       970
       967       970       973       974       967       970       973       975
       967       970       973       976       968       967       970       971
       968       967       970       972       968       967       970       973
       969       967       970       971       969       967       970       972
       969       967       970       973       970       973       976       977
       970       973       976       978       970       973       976       979
       971       970       973       974       971       970       973       975
       971       970       973       976       972       970       973       974
       972       970       973       975       972       970       973       976
       973       976       979       980       973       976       979       981
       973       976       979       982       974       973       976       977
       974       973       976       978       974       973       976       979
       975       973       976       977       975       973       976       978
       975       973       976       979       976       979       982       983
       976       979       982       984       976       979       982       985
       977       976       979       980       977       976       979       981
       977       976       979       982       978       976       979       980
       978       976       979       981       978       976       979       982
       979       982       985       986       979       982       985       987
       979       982       985       988       980       979       982       983
       980       979       982       984       980       979       982       985
       981       979       982       983       981       979       982       984
       981       979       982       985       982       985       988       989
       982       985       988       990       982       985       988       991
       983       982       985       986       983       982       985       987
       983       982       985       988       984       982       985       986
       984       982       985       987       984       982       985       988
       985       988       991       992       985       988       991       993
       985       988       991       994       986       985       988       989
       986       985       988       990       986       985       988       991
       987       985       988       989       987       985       988       990
       987       985       988       991       988       991       994       995
       988       991       994       996       988       991       994       997
       989       988       991       992       989       988       991       993
       989       988       991       994       990       988       991       992
       990       988       991       993       990       988       991       994
       992       991       994       995       992       991       994       996
       992       991       994       997       993       991       994       995
       993       991       994       996       993       991       994       997
       998      1001      1004      1005       998      1001      1004      1006
       998      1001      1004      1007       999       998      1001      1002
       999       998      1001      1003       999       998      1001      1004
      1000       998      1001      1002      1000       998      1001      1003
      1000       998      1001      1004      1001      1004      1007      1008
      1001      1004      1007      1009      1001      1004      1007      1010
      1002      1001      1004      1005      1002      1001      1004      1006
      1002      1001      1004      1007      1003      1001      1004      1005
      1003      1001      1004      1006      1003      1001      1004      1007
      1004      1007      1010      1011      1004      1007      1010      1012
      1004      1007      1010      1013      1005      1004      1007      1008
      1005      1004      1007      1009      1005      1004      1007      1010
      1006      1004      1007      1008      1006      1004      1007      1009
      1006      1004      1007      1010      1007      1010      1013      1014
      1007      1010      1013      1015      1007      1010      1013      1016
      1008      1007      1010      1011      1008      1007      1010      1012
      1008      1007      1010      1013      1009      1007      1010      1011
      1009      1007      1010      1012      1009      1007      1010      1013
      1010      1013      1016      1017      1010      1013      1016      1018
      1010      1013      1016      1019      1011      1010      1013      1014
      1011      1010      1013      1015      1011      1010      1013      1016
      1012      1010      1013      1014      1012      1010      1013      1015
      1012      1010      1013      1016      1013      1016      1019      1020
      1013      1016      1019      1021      1013      1016      1019      1022
      1014      1013      1016      1017      1014      1013      1016      1018
      1014      1013      1016      1019      1015      1013      1016      1017
      1015      1013      1016      1018      1015      1013      1016      1019
      1016      1019      1022      1023      1016      1019      1022      1024
      1016      1019      1022      1025      1017      1016      1019      1020
      1017      1016      1019      1021      1017      1016      1019      1022
      1018      1016      1019      1020      1018      1016      1019      1021
      1018      1016      1019      1022      1019      1022      1025      1026
      1019      1022      1025      1027      1019      1022      1025      1028
      1020      1019      1022      1023      1020      1019      1022      1024
      1020      1019      1022      1025      1021      1019      1022      1023
      1021      1019      1022      1024      1021      1019      1022      1025
      1022      1025      1028      1029      1022      1025      1028      1030
      1022      1025      1028      1031      1023      1022      1025      1026
      1023      1022      1025      1027      1023      1022      1025      1028
      1024      1022      1025      1026      1024      1022      1025      1027
      1024      1022      1025      1028      1025      1028      1031      1032
      1025      1028      1031      1033      1025      1028      1031      1034
      1026      1025      1028      1029      1026      1025      1028      1030
      1026      1025      1028      1031      1027      1025      1028      1029
      1027      1025      1028      1030      1027      1025      1028      1031
      1028      1031      1034      1035      1028      1031      1034      1036
      1028      1031      1034      1037      1029      1028      1031      1032
      1029      1028      1031      1033      1029      1028      1031      1034
      1030      1028      1031      1032      1030      1028      1031      1033
      1030      1028      1031      1034      1031      1034      1037      1038
      1031      1034      1037      1039      1031      1034      1037      1040
      1032      1031      1034      1035      1032      1031      1034      1036
      1032      1031      1034      1037      1033      1031      1034      1035
      1033      1031      1034      1036      1033      1031      1034      1037
      1035      1034      1037      1038      1035      1034      1037      1039
      1035      1034      1037      1040      1036      1034      1037      1038
      1036      1034      1037      1039      1036      1034      1037      1040
      1041      1054      1057      1058      1041      1054      1057      1059
      1041      1054      1057      1064      1042      1041      1046      1047
      1042      1041      1046      1048      1042      1041      1046      1049
      1042      1041      1050      1051      1042      1041      1050      1052
      1042      1041      1050      1053      1042      1041      1054      1055
      1042      1041      1054      1056      1042      1041      1054      1057
      1043      1042      1041      1046      1043      1042      1041      1050
      1043      1042      1041      1054      1044      1042      1041      1046
      1044      1042      1041      1050      1044      1042      1041      1054
      1045      1042      1041      1046      1045      1042      1041      1050
      1045      1042      1041      1054      1046      1041      1050      1051
      1046      1041      1050      1052      1046      1041      1050      1053
      1046      1041      1054      1055      1046      1041      1054      1056
      1046      1041      1054      1057      1047      1046      1041      1050
      1047      1046      1041      1054      1048      1046      1041      1050
      1048      1046      1041      1054      1049      1046      1041      1050
      1049      1046      1041      1054      1050      1041      1054      1055
      1050      1041      1054      1056      1050      1041      1054      1057
      1051      1050      1041      1054      1052      1050      1041      1054
      1053      1050      1041      1054      1054      1057      1064      1060
      1055      1054      1057      1058      1055      1054      1057      1059
      1055      1054      1057      1064      1056      1054      1057      1058
      1056      1054      1057      1059      1056      1054      1057      1064
      1057      1064      1060      1061      1057      1064      1060      1062
      1057      1064      1060      1063      1058      1057      1064      1060
      1059      1057      1064      1060      1060      1063      1065      1066
      1060      1063      1065      1067      1060      1063      1065      1068
      1061      1060      1063      1065      1062      1060      1063      1065
      1063      1065      1068      1069      1063      1065      1068      1070
      1063      1065      1068      1076      1064      1060      1063      1065
      1065      1068      1070      1071      1065      1068      1076      1077
      1065      1068      1076      1078      1065      1068      1076      1079
      1066      1065      1068      1069      1066      1065      1068      1070
      1066      1065      1068      1076      1067      1065      1068      1069
      1067      1065      1068      1070      1067      1065      1068      1076
      1068      1070      1071      1072      1068      1070      1071      1073
      1068      1076      1079      1080      1069      1068      1070      1071
      1069      1068      1076      1077      1069      1068      1076      1078
      1069      1068      1076      1079      1070      1068      1076      1077
      1070      1068      1076      1078      1070      1068      1076      1079
      1070      1071      1073      1074      1070      1071      1073      1075
      1070      1071      1073      1085      1071      1070      1068      1076
      1071      1073      1085      1086      1071      1073      1085      1087
      1071      1073      1085      1088      1072      1071      1073      1074
      1072      1071      1073      1075      1072      1071      1073      1085
      1073      1085      1088      1089      1073      1085      1088      1090
      1073      1085      1088      1091      1074      1073      1085      1086
      1074      1073      1085      1087      1074      1073      1085      1088
      1075      1073      1085      1086      1075      1073      1085      1087
      1075      1073      1085      1088      1076      1079      1080      1081
      1076      1079      1080      1082      1077      1076      1079      1080
      1078      1076      1079      1080      1079      1080      1082      1083
      1079      1080      1082      1084      1079      1080      1082      1128
      1080      1082      1128      1129      1080      1082      1128      1130
      1080      1082      1128      1131      1081      1080      1082      1083
      1081      1080      1082      1084      1081      1080      1082      1128
      1082      1128      1131      1132      1082      1128      1131      1133
      1082      1128      1131      1134      1083      1082      1128      1129
      1083      1082      1128      1130      1083      1082      1128      1131
      1084      1082      1128      1129      1084      1082      1128      1130
      1084      1082      1128      1131      1085      1088      1091      1092
      1085      1088      1091      1093      1085      1088      1091      1094
      1086      1085      1088      1089      1086      1085      1088      1090
      1086      1085      1088      1091      1087      1085      1088      1089
      1087      1085      1088      1090      1087      1085      1088      1091
      1088      1091      1094      1095      1088      1091      1094      1096
      1088      1091      1094      1097      1089      1088      1091      1092
      1089      1088      1091      1093      1089      1088      1091      1094
      1090      1088      1091      1092      1090      1088      1091      1093
      1090      1088      1091      1094      1091      1094      1097      1098
      1091      1094      1097      1099      1091      1094      1097      1100
      1092      1091      1094      1095      1092      1091      1094      1096
      1092      1091      1094      1097      1093      1091      1094      1095
      1093      1091      1094      1096      1093      1091      1094      1097
      1094      1097      1100      1101      1094      1097      1100      1102
      1094      1097      1100      1103      1095      1094      1097      1098
      1095      1094      1097      1099      1095      1094      1097      1100
      1096      1094      1097      1098      1096      1094      1097      1099
      1096      1094      1097      1100      1097      1100      1103      1104
      1097      1100      1103      1105      1097      1100      1103      1106
      1098      1097      1100      1101      1098      1097      1100      1102
      1098      1097      1100      1103      1099      1097      1100      1101
      1099      1097      1100      1102      1099      1097      1100      1103
      1100      1103      1106      1107      1100      1103      1106      1108
      1100      1103      1106      1109      1101      1100      1103      1104
      1101      1100      1103      1105      1101      1100      1103      1106
      1102      1100      1103      1104      1102      1100      1103      1105
      1102      1100      1103      1106      1103      1106      1109      1110
      1103      1106      1109      1111      1103      1106      1109      1112
      1104      1103      1106      1107      1104      1103      1106      1108
      1104      1103      1106      1109      1105      1103      1106      1107
      1105      1103      1106      1108      1105      1103      1106      1109
      1106      1109      1112      1113      1106      1109      1112      1114
      1106      1109      1112      1115      1107      1106      1109      1110
      1107      1106      1109      1111      1107      1106      1109      1112
      1108      1106      1109      1110      1108      1106      1109      1111
      1108      1106      1109      1112      1109      1112      1115      1116
      1109      1112      1115      1117      1109      1112      1115      1118
      1110      1109      1112      1113      1110      1109      1112      1114
      1110      1109      1112      1115      1111      1109      1112      1113
      1111      1109      1112      1114      1111      1109      1112      1115
      1112      1115      1118      1119      1112      1115      1118      1120
      1112      1115      1118      1121      1113      1112      1115      1116
      1113      1112      1115      1117      1113      1112      1115      1118
      1114      1112      1115      1116      1114      1112      1115      1117
      1114      1112      1115      1118      1115      1118      1121      1122
      1115      1118      1121      1123      1115      1118      1121      1124
      1116      1115      1118      1119      1116      1115      1118      1120
      1116      1115      1118      1121      1117      1115      1118      1119
      1117      1115      1118      1120      1117      1115      1118      1121
      1118      1121      1124      1125      1118      1121      1124      1126
      1118      1121      1124      1127      1119      1118      1121      1122
      1119      1118      1121      1123      1119      1118      1121      1124
      1120      1118      1121      1122      1120      1118      1121      1123
      1120      1118      1121      1124      1122      1121      1124      1125
      1122      1121      1124      1126      1122      1121      1124      1127
      1123      1121      1124      1125      1123      1121      1124      1126
      1123      1121      1124      1127      1128      1131      1134      1135
      1128      1131      1134      1136      1128      1131      1134      1137
      1129      1128      1131      1132      1129      1128      1131      1133
      1129      1128      1131      1134      1130      1128      1131      1132
      1130      1128      1131      1133      1130      1128      1131      1134
      1131      1134      1137      1138      1131      1134      1137      1139
      1131      1134      1137      1140      1132      1131      1134      1135
      1132      1131      1134      1136      1132      1131      1134      1137
      1133      1131      1134      1135      1133      1131      1134      1136
      1133      1131      1134      1137      1134      1137      1140      1141
      1134      1137      1140      1142      1134      1137      1140      1143
      1135      1134      1137      1138      1135      1134      1137      1139
      1135      1134      1137      1140      1136      1134      1137      1138
      1136      1134      1137      1139      1136      1134      1137      1140
      1137      1140      1143      1144      1137      1140      1143      1145
      1137      1140      1143      1146      1138      1137      1140      1141
      1138      1137      1140      1142      1138      1137      1140      1143
      1139      1137      1140      1141      1139      1137      1140      1142
      1139      1137      1140      1143      1140      1143      1146      1147
      1140      1143      1146      1148      1140      1143      1146      1149
      1141      1140      1143      1144      1141      1140      1143      1145
      1141      1140      1143      1146      1142      1140      1143      1144
      1142      1140      1143      1145      1142      1140      1143      1146
      1143      1146      1149      1150      1143      1146      1149      1151
      1143      1146      1149      1152      1144      1143      1146      1147
      1144      1143      1146      1148      1144      1143      1146      1149
      1145      1143      1146      1147      1145      1143      1146      1148
      1145      1143      1146      1149      1146      1149      1152      1153
      1146      1149      1152      1154      1146      1149      1152      1155
      1147      1146      1149      1150      1147      1146      1149      1151
      1147      1146      1149      1152      1148      1146      1149      1150
      1148      1146      1149      1151      1148      1146      1149      1152
      1149      1152      1155      1156      1149      1152      1155      1157
      1149      1152      1155      1158      1150      1149      1152      1153
      1150      1149      1152      1154      1150      1149      1152      1155
      1151      1149      1152      1153      1151      1149      1152      1154
      1151      1149      1152      1155      1152      1155      1158      1159
      1152      1155      1158      1160      1152      1155      1158      1161
      1153      1152      1155      1156      1153      1152      1155      1157
      1153      1152      1155      1158      1154      1152      1155      1156
      1154      1152      1155      1157      1154      1152      1155      1158
      1155      1158      1161      1162      1155      1158      1161      1163
      1155      1158      1161      1164      1156      1155      1158      1159
      1156      1155      1158      1160      1156      1155      1158      1161
      1157      1155      1158      1159      1157      1155      1158      1160
      1157      1155      1158      1161      1158      1161      1164      1165
      1158      1161      1164      1166      1158      1161      1164      1167
      1159      1158      1161      1162      1159      1158      1161      1163
      1159      1158      1161      1164      1160      1158      1161      1162
      1160      1158      1161      1163      1160      1158      1161      1164
      1161      1164      1167      1168      1161      1164      1167      1169
      1161      1164      1167      1170      1162      1161      1164      1165
      1162      1161      1164      1166      1162      1161      1164      1167
      1163      1161      1164      1165      1163      1161      1164      1166
      1163      1161      1164      1167      1165      1164      1167      1168
      1165      1164      1167      1169      1165      1164      1167      1170
      1166      1164      1167      1168      1166      1164      1167      1169
      1166      1164      1167      1170      1171      1184      1187      1188
      1171      1184      1187      1189      1171      1184      1187      1194
      1172      1171      1176      1177      1172      1171      1176      1178
      1172      1171      1176      1179      1172      1171      1180      1181
      1172      1171      1180      1182      1172      1171      1180      1183
      1172      1171      1184      1185      1172      1171      1184      1186
      1172      1171      1184      1187      1173      1172      1171      1176
      1173      1172      1171      1180      1173      1172      1171      1184
      1174      1172      1171      1176      1174      1172      1171      1180
      1174      1172      1171      1184      1175      1172      1171      1176
      1175      1172      1171      1180      1175      1172      1171      1184
      1176      1171      1180      1181      1176      1171      1180      1182
      1176      1171      1180      1183      1176      1171      1184      1185
      1176      1171      1184      1186      1176      1171      1184      1187
      1177      1176      1171      1180      1177      1176      1171      1184
      1178      1176      1171      1180      1178      1176      1171      1184
      1179      1176      1171      1180      1179      1176      1171      1184
      1180      1171      1184      1185      1180      1171      1184      1186
      1180      1171      1184      1187      1181      1180      1171      1184
      1182      1180      1171      1184      1183      1180      1171      1184
      1184      1187      1194      1190      1185      1184      1187      1188
      1185      1184      1187      1189      1185      1184      1187      1194
      1186      1184      1187      1188      1186      1184      1187      1189
      1186      1184      1187      1194      1187      1194      1190      1191
      1187      1194      1190      1192      1187      1194      1190      1193
      1188      1187      1194      1190      1189      1187      1194      1190
      1190      1193      1195      1196      1190      1193      1195      1197
      1190      1193      1195      1198      1191      1190      1193      1195
      1192      1190      1193      1195      1193      1195      1198      1199
      1193      1195      1198      1200      1193      1195      1198      1206
      1194      1190      1193      1195      1195      1198      1200      1201
      1195      1198      1206      1207      1195      1198      1206      1208
      1195      1198      1206      1209      1196      1195      1198      1199
      1196      1195      1198      1200      1196      1195      1198      1206
      1197      1195      1198      1199      1197      1195      1198      1200
      1197      1195      1198      1206      1198      1200      1201      1202
      1198      1200      1201      1203      1198      1206      1209      1210
      1199      1198      1200      1201      1199      1198      1206      1207
      1199      1198      1206      1208      1199      1198      1206      1209
      1200      1198      1206      1207      1200      1198      1206      1208
      1200      1198      1206      1209      1200      1201      1203      1204
      1200      1201      1203      1205      1200      1201      1203      1215
      1201      1200      1198      1206      1201      1203      1215      1216
      1201      1203      1215      1217      1201      1203      1215      1218
      1202      1201      1203      1204      1202      1201      1203      1205
      1202      1201      1203      1215      1203      1215      1218      1219
      1203      1215      1218      1220      1203      1215      1218      1221
      1204      1203      1215      1216      1204      1203      1215      1217
      1204      1203      1215      1218      1205      1203      1215      1216
      1205      1203      1215      1217      1205      1203      1215      1218
      1206      1209      1210      1211      1206      1209      1210      1212
      1207      1206      1209      1210      1208      1206      1209      1210
      1209      1210      1212      1213      1209      1210      1212      1214
      1209      1210      1212      1258      1210      1212      1258      1259
      1210      1212      1258      1260      1210      1212      1258      1261
      1211      1210      1212      1213      1211      1210      1212      1214
      1211      1210      1212      1258      1212      1258      1261      1262
      1212      1258      1261      1263      1212      1258      1261      1264
      1213      1212      1258      1259      1213      1212      1258      1260
      1213      1212      1258      1261      1214      1212      1258      1259
      1214      1212      1258      1260      1214      1212      1258      1261
      1215      1218      1221      1222      1215      1218      1221      1223
      1215      1218      1221      1224      1216      1215      1218      1219
      1216      1215      1218      1220      1216      1215      1218      1221
      1217      1215      1218      1219      1217      1215      1218      1220
      1217      1215      1218      1221      1218      1221      1224      1225
      1218      1221      1224      1226      1218      1221      1224      1227
      1219      1218      1221      1222      1219      1218      1221      1223
      1219      1218      1221      1224      1220      1218      1221      1222
      1220      1218      1221      1223      1220      1218      1221      1224
      1221      1224      1227      1228      1221      1224      1227      1229
      1221      1224      1227      1230      1222      1221      1224      1225
      1222      1221      1224      1226      1222      1221      1224      1227
      1223      1221      1224      1225      1223      1221      1224      1226
      1223      1221      1224      1227      1224      1227      1230      1231
      1224      1227      1230      1232      1224      1227      1230      1233
      1225      1224      1227      1228      1225      1224      1227      1229
      1225      1224      1227      1230      1226      1224      1227      1228
      1226      1224      1227      1229      1226      1224      1227      1230
      1227      1230      1233      1234      1227      1230      1233      1235
      1227      1230      1233      1236      1228      1227      1230      1231
      1228      1227      1230      1232      1228      1227      1230      1233
      1229      1227      1230      1231      1229      1227      1230      1232
      1229      1227      1230      1233      1230      1233      1236      1237
      1230      1233      1236      1238      1230      1233      1236      1239
      1231      1230      1233      1234      1231      1230      1233      1235
      1231      1230      1233      1236      1232      1230      1233      1234
      1232      1230      1233      1235      1232      1230      1233      1236
      1233      1236      1239      1240      1233      1236      1239      1241
      1233      1236      1239      1242      1234      1233      1236      1237
      1234      1233      1236      1238      1234      1233      1236      1239
      1235      1233      1236      1237      1235      1233      1236      1238
      1235      1233      1236      1239      1236      1239      1242      1243
      1236      1239      1242      1244      1236      1239      1242      1245
      1237      1236      1239      1240      1237      1236      1239      1241
      1237      1236      1239      1242      1238      1236      1239      1240
      1238      1236      1239      1241      1238      1236      1239      1242
      1239      1242      1245      1246      1239      1242      1245      1247
      1239      1242      1245      1248      1240      1239      1242      1243
      1240      1239      1242      1244      1240      1239      1242      1245
      1241      1239      1242      1243      1241      1239      1242      1244
      1241      1239      1242      1245      1242      1245      1248      1249
      1242      1245      1248      1250      1242      1245      1248      1251
      1243      1242      1245      1246      1243      1242      1245      1247
      1243      1242      1245      1248      1244      1242      1245      1246
      1244      1242      1245      1247      1244      1242      1245      1248
      1245      1248      1251      1252      1245      1248      1251      1253
      1245      1248      1251      1254      1246      1245      1248      1249
      1246      1245      1248      1250      1246      1245      1248      1251
      1247      1245      1248      1249      1247      1245      1248      1250
      1247      1245      1248      1251      1248      1251      1254      1255
      1248      1251      1254      1256      1248      1251      1254      1257
      1249      1248      1251      1252      1249      1248      1251      1253
      1249      1248      1251      1254      1250      1248      1251      1252
      1250      1248      1251      1253      1250      1248      1251      1254
      1252      1251      1254      1255      1252      1251      1254      1256
      1252      1251      1254      1257      1253      1251      1254      1255
      1253      1251      1254      1256      1253      1251      1254      1257
      1258      1261      1264      1265      1258      1261      1264      1266
      1258      1261      1264      1267      1259      1258      1261      1262
      1259      1258      1261      1263      1259      1258      1261      1264
      1260      1258      1261      1262      1260      1258      1261      1263
      1260      1258      1261      1264      1261      1264      1267      1268
      1261      1264      1267      1269      1261      1264      1267      1270
      1262      1261      1264      1265      1262      1261      1264      1266
      1262      1261      1264      1267      1263      1261      1264      1265
      1263      1261      1264      1266      1263      1261      1264      1267
      1264      1267      1270      1271      1264      1267      1270      1272
      1264      1267      1270      1273      1265      1264      1267      1268
      1265      1264      1267      1269      1265      1264      1267      1270
      1266      1264      1267      1268      1266      1264      1267      1269
      1266      1264      1267      1270      1267      1270      1273      1274
      1267      1270      1273      1275      1267      1270      1273      1276
      1268      1267      1270      1271      1268      1267      1270      1272
      1268      1267      1270      1273      1269      1267      1270      1271
      1269      1267      1270      1272      1269      1267      1270      1273
      1270      1273      1276      1277      1270      1273      1276      1278
      1270      1273      1276      1279      1271      1270      1273      1274
      1271      1270      1273      1275      1271      1270      1273      1276
      1272      1270      1273      1274      1272      1270      1273      1275
      1272      1270      1273      1276      1273      1276      1279      1280
      1273      1276      1279      1281      1273      1276      1279      1282
      1274      1273      1276      1277      1274      1273      1276      1278
      1274      1273      1276      1279      1275      1273      1276      1277
      1275      1273      1276      1278      1275      1273      1276      1279
      1276      1279      1282      1283      1276      1279      1282      1284
      1276      1279      1282      1285      1277      1276      1279      1280
      1277      1276      1279      1281      1277      1276      1279      1282
      1278      1276      1279      1280      1278      1276      1279      1281
      1278      1276      1279      1282      1279      1282      1285      1286
      1279      1282      1285      1287      1279      1282      1285      1288
      1280      1279      1282      1283      1280      1279      1282      1284
      1280      1279      1282      1285      1281      1279      1282      1283
      1281      1279      1282      1284      1281      1279      1282      1285
      1282      1285      1288      1289      1282      1285      1288      1290
      1282      1285      1288      1291      1283      1282      1285      1286
      1283      1282      1285      1287      1283      1282      1285      1288
      1284      1282      1285      1286      1284      1282      1285      1287
      1284      1282      1285      1288      1285      1288      1291      1292
      1285      1288      1291      1293      1285      1288      1291      1294
      1286      1285      1288      1289      1286      1285      1288      1290
      1286      1285      1288      1291      1287      1285      1288      1289
      1287      1285      1288      1290      1287      1285      1288      1291
      1288      1291      1294      1295      1288      1291      1294      1296
      1288      1291      1294      1297      1289      1288      1291      1292
      1289      1288      1291      1293      1289      1288      1291      1294
      1290      1288      1291      1292      1290      1288      1291      1293
      1290      1288      1291      1294      1291      1294      1297      1298
      1291      1294      1297      1299      1291      1294      1297      1300
      1292      1291      1294      1295      1292      1291      1294      1296
      1292      1291      1294      1297      1293      1291      1294      1295
      1293      1291      1294      1296      1293      1291      1294      1297
      1295      1294      1297      1298      1295      1294      1297      1299
      1295      1294      1297      1300      1296      1294      1297      1298
      1296      1294      1297      1299      1296      1294      1297      1300
      1301      1314      1317      1318      1301      1314      1317      1319
      1301      1314      1317      1324      1302      1301      1306      1307
      1302      1301      1306      1308      1302      1301      1306      1309
      1302      1301      1310      1311      1302      1301      1310      1312
      1302      1301      1310      1313      1302      1301      1314      1315
      1302      1301      1314      1316      1302      1301      1314      1317
      1303      1302      1301      1306      1303      1302      1301      1310
      1303      1302      1301      1314      1304      1302      1301      1306
      1304      1302      1301      1310      1304      1302      1301      1314
      1305      1302      1301      1306      1305      1302      1301      1310
      1305      1302      1301      1314      1306      1301      1310      1311
      1306      1301      1310      1312      1306      1301      1310      1313
      1306      1301      1314      1315      1306      1301      1314      1316
      1306      1301      1314      1317      1307      1306      1301      1310
      1307      1306      1301      1314      1308      1306      1301      1310
      1308      1306      1301      1314      1309      1306      1301      1310
      1309      1306      1301      1314      1310      1301      1314      1315
      1310      1301      1314      1316      1310      1301      1314      1317
      1311      1310      1301      1314      1312      1310      1301      1314
      1313      1310      1301      1314      1314      1317      1324      1320
      1315      1314      1317      1318      1315      1314      1317      1319
      1315      1314      1317      1324      1316      1314      1317      1318
      1316      1314      1317      1319      1316      1314      1317      1324
      1317      1324      1320      1321      1317      1324      1320      1322
      1317      1324      1320      1323      1318      1317      1324      1320
      1319      1317      1324      1320      1320      1323      1325      1326
      1320      1323      1325      1327      1320      1323      1325      1328
      1321      1320      1323      1325      1322      1320      1323      1325
      1323      1325      1328      1329      1323      1325      1328      1330
      1323      1325      1328      1336      1324      1320      1323      1325
      1325      1328      1330      1331      1325      1328      1336      1337
      1325      1328      1336      1338      1325      1328      1336      1339
      1326      1325      1328      1329      1326      1325      1328      1330
      1326      1325      1328      1336      1327      1325      1328      1329
      1327      1325      1328      1330      1327      1325      1328      1336
      1328      1330      1331      1332      1328      1330      1331      1333
      1328      1336      1339      1340      1329      1328      1330      1331
      1329      1328      1336      1337      1329      1328      1336      1338
      1329      1328      1336      1339      1330      1328      1336      1337
      1330      1328      1336      1338      1330      1328      1336      1339
      1330      1331      1333      1334      1330      1331      1333      1335
      1330      1331      1333      1345      1331      1330      1328      1336
      1331      1333      1345      1346      1331      1333      1345      1347
      1331      1333      1345      1348      1332      1331      1333      1334
      1332      1331      1333      1335      1332      1331      1333      1345
      1333      1345      1348      1349      1333      1345      1348      1350
      1333      1345      1348      1351      1334      1333      1345      1346
      1334      1333      1345      1347      1334      1333      1345      1348
      1335      1333      1345      1346      1335      1333      1345      1347
      1335      1333      1345      1348      1336      1339      1340      1341
      1336      1339      1340      1342      1337      1336      1339      1340
      1338      1336      1339      1340      1339      1340      1342      1343
      1339      1340      1342      1344      1339      1340      1342      1388
      1340      1342      1388      1389      1340      1342      1388      1390
      1340      1342      1388      1391      1341      1340      1342      1343
      1341      1340      1342      1344      1341      1340      1342      1388
      1342      1388      1391      1392      1342      1388      1391      1393
      1342      1388      1391      1394      1343      1342      1388      1389
      1343      1342      1388      1390      1343      1342      1388      1391
      1344      1342      1388      1389      1344      1342      1388      1390
      1344      1342      1388      1391      1345      1348      1351      1352
      1345      1348      1351      1353      1345      1348      1351      1354
      1346      1345      1348      1349      1346      1345      1348      1350
      1346      1345      1348      1351      1347      1345      1348      1349
      1347      1345      1348      1350      1347      1345      1348      1351
      1348      1351      1354      1355      1348      1351      1354      1356
      1348      1351      1354      1357      1349      1348      1351      1352
      1349      1348      1351      1353      1349      1348      1351      1354
      1350      1348      1351      1352      1350      1348      1351      1353
      1350      1348      1351      1354      1351      1354      1357      1358
      1351      1354      1357      1359      1351      1354      1357      1360
      1352      1351      1354      1355      1352      1351      1354      1356
      1352      1351      1354      1357      1353      1351      1354      1355
      1353      1351      1354      1356      1353      1351      1354      1357
      1354      1357      1360      1361      1354      1357      1360      1362
      1354      1357      1360      1363      1355      1354      1357      1358
      1355      1354      1357      1359      1355      1354      1357      1360
      1356      1354      1357      1358      1356      1354      1357      1359
      1356      1354      1357      1360      1357      1360      1363      1364
      1357      1360      1363      1365      1357      1360      1363      1366
      1358      1357      1360      1361      1358      1357      1360      1362
      1358      1357      1360      1363      1359      1357      1360      1361
      1359      1357      1360      1362      1359      1357      1360      1363
      1360      1363      1366      1367      1360      1363      1366      1368
      1360      1363      1366      1369      1361      1360      1363      1364
      1361      1360      1363      1365      1361      1360      1363      1366
      1362      1360      1363      1364      1362      1360      1363      1365
      1362      1360      1363      1366      1363      1366      1369      1370
      1363      1366      1369      1371      1363      1366      1369      1372
      1364      1363      1366      1367      1364      1363      1366      1368
      1364      1363      1366      1369      1365      1363      1366      1367
      1365      1363      1366      1368      1365      1363      1366      1369
      1366      1369      1372      1373      1366      1369      1372      1374
      1366      1369      1372      1375      1367      1366      1369      1370
      1367      1366      1369      1371      1367      1366      1369      1372
      1368      1366      1369      1370      1368      1366      1369      1371
      1368      1366      1369      1372      1369      1372      1375      1376
      1369      1372      1375      1377      1369      1372      1375      1378
      1370      1369      1372      1373      1370      1369      1372      1374
      1370      1369      1372      1375      1371      1369      1372      1373
      1371      1369      1372      1374      1371      1369      1372      1375
      1372      1375      1378      1379      1372      1375      1378      1380
      1372      1375      1378      1381      1373      1372      1375      1376
      1373      1372      1375      1377      1373      1372      1375      1378
      1374      1372      1375      1376      1374      1372      1375      1377
      1374      1372      1375      1378      1375      1378      1381      1382
      1375      1378      1381      1383      1375      1378      1381      1384
      1376      1375      1378      1379      1376      1375      1378      1380
      1376      1375      1378      1381      1377      1375      1378      1379
      1377      1375      1378      1380      1377      1375      1378      1381
      1378      1381      1384      1385      1378      1381      1384      1386
      1378      1381      1384      1387      1379      1378      1381      1382
      1379      1378      1381      1383      1379      1378      1381      1384
      1380      1378      1381      1382      1380      1378      1381      1383
      1380      1378      1381      1384      1382      1381      1384      1385
      1382      1381      1384      1386      1382      1381      1384      1387
      1383      1381      1384      1385      1383      1381      1384      1386
      1383      1381      1384      1387      1388      1391      1394      1395
      1388      1391      1394      1396      1388      1391      1394      1397
      1389      1388      1391      1392      1389      1388      1391      1393
      1389      1388      1391      1394      1390      1388      1391      1392
      1390      1388      1391      1393      1390      1388      1391      1394
      1391      1394      1397      1398      1391      1394      1397      1399
      1391      1394      1397      1400      1392      1391      1394      1395
      1392      1391      1394      1396      1392      1391      1394      1397
      1393      1391      1394      1395      1393      1391      1394      1396
      1393      1391      1394      1397      1394      1397      1400      1401
      1394      1397      1400      1402      1394      1397      1400      1403
      1395      1394      1397      1398      1395      1394      1397      1399
      1395      1394      1397      1400      1396      1394      1397      1398
      1396      1394      1397      1399      1396      1394      1397      1400
      1397      1400      1403      1404      1397      1400      1403      1405
      1397      1400      1403      1406      1398      1397      1400      1401
      1398      1397      1400      1402      1398      1397      1400      1403
      1399      1397      1400      1401      1399      1397      1400      1402
      1399      1397      1400      1403      1400      1403      1406      1407
      1400      1403      1406      1408      1400      1403      1406      1409
      1401      1400      1403      1404      1401      1400      1403      1405
      1401      1400      1403      1406      1402      1400      1403      1404
      1402      1400      1403      1405      1402      1400      1403      1406
      1403      1406      1409      1410      1403      1406      1409      1411
      1403      1406      1409      1412      1404      1403      1406      1407
      1404      1403      1406      1408      1404      1403      1406      1409
      1405      1403      1406      1407      1405      1403      1406      1408
      1405      1403      1406      1409      1406      1409      1412      1413
      1406      1409      1412      1414      1406      1409      1412      1415
      1407      1406      1409      1410      1407      1406      1409      1411
      1407      1406      1409      1412      1408      1406      1409      1410
      1408      1406      1409      1411      1408      1406      1409      1412
      1409      1412      1415      1416      1409      1412      1415      1417
      1409      1412      1415      1418      1410      1409      1412      1413
      1410      1409      1412      1414      1410      1409      1412      1415
      1411      1409      1412      1413      1411      1409      1412      1414
      1411      1409      1412      1415      1412      1415      1418      1419
      1412      1415      1418      1420      1412      1415      1418      1421
      1413      1412      1415      1416      1413      1412      1415      1417
      1413      1412      1415      1418      1414      1412      1415      1416
      1414      1412      1415      1417      1414      1412      1415      1418
      1415      1418      1421      1422      1415      1418      1421      1423
      1415      1418      1421      1424      1416      1415      1418      1419
      1416      1415      1418      1420      1416      1415      1418      1421
      1417      1415      1418      1419      1417      1415      1418      1420
      1417      1415      1418      1421      1418      1421      1424      1425
      1418      1421      1424      1426      1418      1421      1424      1427
      1419      1418      1421      1422      1419      1418      1421      1423
      1419      1418      1421      1424      1420      1418      1421      1422
      1420      1418      1421      1423      1420      1418      1421      1424
      1421      1424      1427      1428      1421      1424      1427      1429
      1421      1424      1427      1430      1422      1421      1424      1425
      1422      1421      1424      1426      1422      1421      1424      1427
      1423      1421      1424      1425      1423      1421      1424      1426
      1423      1421      1424      1427      1425      1424      1427      1428
      1425      1424      1427      1429      1425      1424      1427      1430
      1426      1424      1427      1428      1426      1424      1427      1429
      1426      1424      1427      1430      1431      1444      1447      1448
      1431      1444      1447      1449      1431      1444      1447      1454
      1432      1431      1436      1437      1432      1431      1436      1438
      1432      1431      1436      1439      1432      1431      1440      1441
      1432      1431      1440      1442      1432      1431      1440      1443
      1432      1431      1444      1445      1432      1431      1444      1446
      1432      1431      1444      1447      1433      1432      1431      1436
      1433      1432      1431      1440      1433      1432      1431      1444
      1434      1432      1431      1436      1434      1432      1431      1440
      1434      1432      1431      1444      1435      1432      1431      1436
      1435      1432      1431      1440      1435      1432      1431      1444
      1436      1431      1440      1441      1436      1431      1440      1442
      1436      1431      1440      1443      1436      1431      1444      1445
      1436      1431      1444      1446      1436      1431      1444      1447
      1437      1436      1431      1440      1437      1436      1431      1444
      1438      1436      1431      1440      1438      1436      1431      1444
      1439      1436      1431      1440      1439      1436      1431      1444
      1440      1431      1444      1445      1440      1431      1444      1446
      1440      1431      1444      1447      1441      1440      1431      1444
      1442      1440      1431      1444      1443      1440      1431      1444
      1444      1447      1454      1450      1445      1444      1447      1448
      1445      1444      1447      1449      1445      1444      1447      1454
      1446      1444      1447      1448      1446      1444      1447      1449
      1446      1444      1447      1454      1447      1454      1450      1451
      1447      1454      1450      1452      1447      1454      1450      1453
      1448      1447      1454      1450      1449      1447      1454      1450
      1450      1453      1455      1456      1450      1453      1455      1457
      1450      1453      1455      1458      1451      1450      1453      1455
      1452      1450      1453      1455      1453      1455      1458      1459
      1453      1455      1458      1460      1453      1455      1458      1466
      1454      1450      1453      1455      1455      1458      1460      1461
      1455      1458      1466      1467      1455      1458      1466      1468
      1455      1458      1466      1469      1456      1455      1458      1459
      1456      1455      1458      1460      1456      1455      1458      1466
      1457      1455      1458      1459      1457      1455      1458      1460
      1457      1455      1458      1466      1458      1460      1461      1462
      1458      1460      1461      1463      1458      1466      1469      1470
      1459      1458      1460      1461      1459      1458      1466      1467
      1459      1458      1466      1468      1459      1458      1466      1469
      1460      1458      1466      1467      1460      1458      1466      1468
      1460      1458      1466      1469      1460      1461      1463      1464
      1460      1461      1463      1465      1460      1461      1463      1475
      1461      1460      1458      1466      1461      1463      1475      1476
      1461      1463      1475      1477      1461      1463      1475      1478
      1462      1461      1463      1464      1462      1461      1463      1465
      1462      1461      1463      1475      1463      1475      1478      1479
      1463      1475      1478      1480      1463      1475      1478      1481
      1464      1463      1475      1476      1464      1463      1475      1477
      1464      1463      1475      1478      1465      1463      1475      1476
      1465      1463      1475      1477      1465      1463      1475      1478
      1466      1469      1470      1471      1466      1469      1470      1472
      1467      1466      1469      1470      1468      1466      1469      1470
      1469      1470      1472      1473      1469      1470      1472      1474
      1469      1470      1472      1518      1470      1472      1518      1519
      1470      1472      1518      1520      1470      1472      1518      1521
      1471      1470      1472      1473      1471      1470      1472      1474
      1471      1470      1472      1518      1472      1518      1521      1522
      1472      1518      1521      1523      1472      1518      1521      1524
      1473      1472      1518      1519      1473      1472      1518      1520
      1473      1472      1518      1521      1474      1472      1518      1519
      1474      1472      1518      1520      1474      1472      1518      1521
      1475      1478      1481      1482      1475      1478      1481      1483
      1475      1478      1481      1484      1476      1475      1478      1479
      1476      1475      1478      1480      1476      1475      1478      1481
      1477      1475      1478      1479      1477      1475      1478      1480
      1477      1475      1478      1481      1478      1481      1484      1485
      1478      1481      1484      1486      1478      1481      1484      1487
      1479      1478      1481      1482      1479      1478      1481      1483
      1479      1478      1481      1484      1480      1478      1481      1482
      1480      1478      1481      1483      1480      1478      1481      1484
      1481      1484      1487      1488      1481      1484      1487      1489
      1481      1484      1487      1490      1482      1481      1484      1485
      1482      1481      1484      1486      1482      1481      1484      1487
      1483      1481      1484      1485      1483      1481      1484      1486
      1483      1481      1484      1487      1484      1487      1490      1491
      1484      1487      1490      1492      1484      1487      1490      1493
      1485      1484      1487      1488      1485      1484      1487      1489
      1485      1484      1487      1490      1486      1484      1487      1488
      1486      1484      1487      1489      1486      1484      1487      1490
      1487      1490      1493      1494      1487      1490      1493      1495
      1487      1490      1493      1496      1488      1487      1490      1491
      1488      1487      1490      1492      1488      1487      1490      1493
      1489      1487      1490      1491      1489      1487      1490      1492
      1489      1487      1490      1493      1490      1493      1496      1497
      1490      1493      1496      1498      1490      1493      1496      1499
      1491      1490      1493      1494      1491      1490      1493      1495
      1491      1490      1493      1496      1492      1490      1493      1494
      1492      1490      1493      1495      1492      1490      1493      1496
      1493      1496      1499      1500      1493      1496      1499      1501
      1493      1496      1499      1502      1494      1493      1496      1497
      1494      1493      1496      1498      1494      1493      1496      1499
      1495      1493      1496      1497      1495      1493      1496      1498
      1495      1493      1496      1499      1496      1499      1502      1503
      1496      1499      1502      1504      1496      1499      1502      1505
      1497      1496      1499      1500      1497      1496      1499      1501
      1497      1496      1499      1502      1498      1496      1499      1500
      1498      1496      1499      1501      1498      1496      1499      1502
      1499      1502      1505      1506      1499      1502      1505      1507
      1499      1502      1505      1508      1500      1499      1502      1503
      1500      1499      1502      1504      1500      1499      1502      1505
      1501      1499      1502      1503      1501      1499      1502      1504
      1501      1499      1502      1505      1502      1505      1508      1509
      1502      1505      1508      1510      1502      1505      1508      1511
      1503      1502      1505      1506      1503      1502      1505      1507
      1503      1502      1505      1508      1504      1502      1505      1506
      1504      1502      1505      1507      1504      1502      1505      1508
      1505      1508      1511      1512      1505      1508      1511      1513
      1505      1508      1511      1514      1506      1505      1508      1509
      1506      1505      1508      1510      1506      1505      1508      1511
      1507      1505      1508      1509      1507      1505      1508      1510
      1507      1505      1508      1511      1508      1511      1514      1515
      1508      1511      1514      1516      1508      1511      1514      1517
      1509      1508      1511      1512      1509      1508      1511      1513
      1509      1508      1511      1514      1510      1508      1511      1512
      1510      1508      1511      1513      1510      1508      1511      1514
      1512      1511      1514      1515      1512      1511      1514      1516
      1512      1511      1514      1517      1513      1511      1514      1515
      1513      1511      1514      1516      1513      1511      1514      1517
      1518      1521      1524      1525      1518      1521      1524      1526
      1518      1521      1524      1527      1519      1518      1521      1522
      1519      1518      1521      1523      1519      1518      1521      1524
      1520      1518      1521      1522      1520      1518      1521      1523
      1520      1518      1521      1524      1521      1524      1527      1528
      1521      1524      1527      1529      1521      1524      1527      1530
      1522      1521      1524      1525      1522      1521      1524      1526
      1522      1521      1524      1527      1523      1521      1524      1525
      1523      1521      1524      1526      1523      1521      1524      1527
      1524      1527      1530      1531      1524      1527      1530      1532
      1524      1527      1530      1533      1525      1524      1527      1528
      1525      1524      1527      1529      1525      1524      1527      1530
      1526      1524      1527      1528      1526      1524      1527      1529
      1526      1524      1527      1530      1527      1530      1533      1534
      1527      1530      1533      1535      1527      1530      1533      1536
      1528      1527      1530      1531      1528      1527      1530      1532
      1528      1527      1530      1533      1529      1527      1530      1531
      1529      1527      1530      1532      1529      1527      1530      1533
      1530      1533      1536      1537      1530      1533      1536      1538
      1530      1533      1536      1539      1531      1530      1533      1534
      1531      1530      1533      1535      1531      1530      1533      1536
      1532      1530      1533      1534      1532      1530      1533      1535
      1532      1530      1533      1536      1533      1536      1539      1540
      1533      1536      1539      1541      1533      1536      1539      1542
      1534      1533      1536      1537      1534      1533      1536      1538
      1534      1533      1536      1539      1535      1533      1536      1537
      1535      1533      1536      1538      1535      1533      1536      1539
      1536      1539      1542      1543      1536      1539      1542      1544
      1536      1539      1542      1545      1537      1536      1539      1540
      1537      1536      1539      1541      1537      1536      1539      1542
      1538      1536      1539      1540      1538      1536      1539      1541
      1538      1536      1539      1542      1539      1542      1545      1546
      1539      1542      1545      1547      1539      1542      1545      1548
      1540      1539      1542      1543      1540      1539      1542      1544
      1540      1539      1542      1545      1541      1539      1542      1543
      1541      1539      1542      1544      1541      1539      1542      1545
      1542      1545      1548      1549      1542      1545      1548      1550
      1542      1545      1548      1551      1543      1542      1545      1546
      1543      1542      1545      1547      1543      1542      1545      1548
      1544      1542      1545      1546      1544      1542      1545      1547
      1544      1542      1545      1548      1545      1548      1551      1552
      1545      1548      1551      1553      1545      1548      1551      1554
      1546      1545      1548      1549      1546      1545      1548      1550
      1546      1545      1548      1551      1547      1545      1548      1549
      1547      1545      1548      1550      1547      1545      1548      1551
      1548      1551      1554      1555      1548      1551      1554      1556
      1548      1551      1554      1557      1549      1548      1551      1552
      1549      1548      1551      1553      1549      1548      1551      1554
      1550      1548      1551      1552      1550      1548      1551      1553
      1550      1548      1551      1554      1551      1554      1557      1558
      1551      1554      1557      1559      1551      1554      1557      1560
      1552      1551      1554      1555      1552      1551      1554      1556
      1552      1551      1554      1557      1553      1551      1554      1555
      1553      1551      1554      1556      1553      1551      1554      1557
      1555      1554      1557      1558      1555      1554      1557      1559
      1555      1554      1557      1560      1556      1554      1557      1558
      1556      1554      1557      1559      1556      1554      1557      1560
      1561      1574      1577      1578      1561      1574      1577      1579
      1561      1574      1577      1584      1562      1561      1566      1567
      1562      1561      1566      1568      1562      1561      1566      1569
      1562      1561      1570      1571      1562      1561      1570      1572
      1562      1561      1570      1573      1562      1561      1574      1575
      1562      1561      1574      1576      1562      1561      1574      1577
      1563      1562      1561      1566      1563      1562      1561      1570
      1563      1562      1561      1574      1564      1562      1561      1566
      1564      1562      1561      1570      1564      1562      1561      1574
      1565      1562      1561      1566      1565      1562      1561      1570
      1565      1562      1561      1574      1566      1561      1570      1571
      1566      1561      1570      1572      1566      1561      1570      1573
      1566      1561      1574      1575      1566      1561      1574      1576
      1566      1561      1574      1577      1567      1566      1561      1570
      1567      1566      1561      1574      1568      1566      1561      1570
      1568      1566      1561      1574      1569      1566      1561      1570
      1569      1566      1561      1574      1570      1561      1574      1575
      1570      1561      1574      1576      1570      1561      1574      1577
      1571      1570      1561      1574      1572      1570      1561      1574
      1573      1570      1561      1574      1574      1577      1584      1580
      1575      1574      1577      1578      1575      1574      1577      1579
      1575      1574      1577      1584      1576      1574      1577      1578
      1576      1574      1577      1579      1576      1574      1577      1584
      1577      1584      1580      1581      1577      1584      1580      1582
      1577      1584      1580      1583      1578      1577      1584      1580
      1579      1577      1584      1580      1580      1583      1585      1586
      1580      1583      1585      1587      1580      1583      1585      1588
      1581      1580      1583      1585      1582      1580      1583      1585
      1583      1585      1588      1589      1583      1585      1588      1590
      1583      1585      1588      1596      1584      1580      1583      1585
      1585      1588      1590      1591      1585      1588      1596      1597
      1585      1588      1596      1598      1585      1588      1596      1599
      1586      1585      1588      1589      1586      1585      1588      1590
      1586      1585      1588      1596      1587      1585      1588      1589
      1587      1585      1588      1590      1587      1585      1588      1596
      1588      1590      1591      1592      1588      1590      1591      1593
      1588      1596      1599      1600      1589      1588      1590      1591
      1589      1588      1596      1597      1589      1588      1596      1598
      1589      1588      1596      1599      1590      1588      1596      1597
      1590      1588      1596      1598      1590      1588      1596      1599
      1590      1591      1593      1594      1590      1591      1593      1595
      1590      1591      1593      1605      1591      1590      1588      1596
      1591      1593      1605      1606      1591      1593      1605      1607
      1591      1593      1605      1608      1592      1591      1593      1594
      1592      1591      1593      1595      1592      1591      1593      1605
      1593      1605      1608      1609      1593      1605      1608      1610
      1593      1605      1608      1611      1594      1593      1605      1606
      1594      1593      1605      1607      1594      1593      1605      1608
      1595      1593      1605      1606      1595      1593      1605      1607
      1595      1593      1605      1608      1596      1599      1600      1601
      1596      1599      1600      1602      1597      1596      1599      1600
      1598      1596      1599      1600      1599      1600      1602      1603
      1599      1600      1602      1604      1599      1600      1602      1648
      1600      1602      1648      1649      1600      1602      1648      1650
      1600      1602      1648      1651      1601      1600      1602      1603
      1601      1600      1602      1604      1601      1600      1602      1648
      1602      1648      1651      1652      1602      1648      1651      1653
      1602      1648      1651      1654      1603      1602      1648      1649
      1603      1602      1648      1650      1603      1602      1648      1651
      1604      1602      1648      1649      1604      1602      1648      1650
      1604      1602      1648      1651      1605      1608      1611      1612
      1605      1608      1611      1613      1605      1608      1611      1614
      1606      1605      1608      1609      1606      1605      1608      1610
      1606      1605      1608      1611      1607      1605      1608      1609
      1607      1605      1608      1610      1607      1605      1608      1611
      1608      1611      1614      1615      1608      1611      1614      1616
      1608      1611      1614      1617      1609      1608      1611      1612
      1609      1608      1611      1613      1609      1608      1611      1614
      1610      1608      1611      1612      1610      1608      1611      1613
      1610      1608      1611      1614      1611      1614      1617      1618
      1611      1614      1617      1619      1611      1614      1617      1620
      1612      1611      1614      1615      1612      1611      1614      1616
      1612      1611      1614      1617      1613      1611      1614      1615
      1613      1611      1614      1616      1613      1611      1614      1617
      1614      1617      1620      1621      1614      1617      1620      1622
      1614      1617      1620      1623      1615      1614      1617      1618
      1615      1614      1617      1619      1615      1614      1617      1620
      1616      1614      1617      1618      1616      1614      1617      1619
      1616      1614      1617      1620      1617      1620      1623      1624
      1617      1620      1623      1625      1617      1620      1623      1626
      1618      1617      1620      1621      1618      1617      1620      1622
      1618      1617      1620      1623      1619      1617      1620      1621
      1619      1617      1620      1622      1619      1617      1620      1623
      1620      1623      1626      1627      1620      1623      1626      1628
      1620      1623      1626      1629      1621      1620      1623      1624
      1621      1620      1623      1625      1621      1620      1623      1626
      1622      1620      1623      1624      1622      1620      1623      1625
      1622      1620      1623      1626      1623      1626      1629      1630
      1623      1626      1629      1631      1623      1626      1629      1632
      1624      1623      1626      1627      1624      1623      1626      1628
      1624      1623      1626      1629      1625      1623      1626      1627
      1625      1623      1626      1628      1625      1623      1626      1629
      1626      1629      1632      1633      1626      1629      1632      1634
      1626      1629      1632      1635      1627      1626      1629      1630
      1627      1626      1629      1631      1627      1626      1629      1632
      1628      1626      1629      1630      1628      1626      1629      1631
      1628      1626      1629      1632      1629      1632      1635      1636
      1629      1632      1635      1637      1629      1632      1635      1638
      1630      1629      1632      1633      1630      1629      1632      1634
      1630      1629      1632      1635      1631      1629      1632      1633
      1631      1629      1632      1634      1631      1629      1632      1635
      1632      1635      1638      1639      1632      1635      1638      1640
      1632      1635      1638      1641      1633      1632      1635      1636
      1633      1632      1635      1637      1633      1632      1635      1638
      1634      1632      1635      1636      1634      1632      1635      1637
      1634      1632      1635      1638      1635      1638      1641      1642
      1635      1638      1641      1643      1635      1638      1641      1644
      1636      1635      1638      1639      1636      1635      1638      1640
      1636      1635      1638      1641      1637      1635      1638      1639
      1637      1635      1638      1640      1637      1635      1638      1641
      1638      1641      1644      1645      1638      1641      1644      1646
      1638      1641      1644      1647      1639      1638      1641      1642
      1639      1638      1641      1643      1639      1638      1641      1644
      1640      1638      1641      1642      1640      1638      1641      1643
      1640      1638      1641      1644      1642      1641      1644      1645
      1642      1641      1644      1646      1642      1641      1644      1647
      1643      1641      1644      1645      1643      1641      1644      1646
      1643      1641      1644      1647      1648      1651      1654      1655
      1648      1651      1654      1656      1648      1651      1654      1657
      1649      1648      1651      1652      1649      1648      1651      1653
      1649      1648      1651      1654      1650      1648      1651      1652
      1650      1648      1651      1653      1650      1648      1651      1654
      1651      1654      1657      1658      1651      1654      1657      1659
      1651      1654      1657      1660      1652      1651      1654      1655
      1652      1651      1654      1656      1652      1651      1654      1657
      1653      1651      1654      1655      1653      1651      1654      1656
      1653      1651      1654      1657      1654      1657      1660      1661
      1654      1657      1660      1662      1654      1657      1660      1663
      1655      1654      1657      1658      1655      1654      1657      1659
      1655      1654      1657      1660      1656      1654      1657      1658
      1656      1654      1657      1659      1656      1654      1657      1660
      1657      1660      1663      1664      1657      1660      1663      1665
      1657      1660      1663      1666      1658      1657      1660      1661
      1658      1657      1660      1662      1658      1657      1660      1663
      1659      1657      1660      1661      1659      1657      1660      1662
      1659      1657      1660      1663      1660      1663      1666      1667
      1660      1663      1666      1668      1660      1663      1666      1669
      1661      1660      1663      1664      1661      1660      1663      1665
      1661      1660      1663      1666      1662      1660      1663      1664
      1662      1660      1663      1665      1662      1660      1663      1666
      1663      1666      1669      1670      1663      1666      1669      1671
      1663      1666      1669      1672      1664      1663      1666      1667
      1664      1663      1666      1668      1664      1663      1666      1669
      1665      1663      1666      1667      1665      1663      1666      1668
      1665      1663      1666      1669      1666      1669      1672      1673
      1666      1669      1672      1674      1666      1669      1672      1675
      1667      1666      1669      1670      1667      1666      1669      1671
      1667      1666      1669      1672      1668      1666      1669      1670
      1668      1666      1669      1671      1668      1666      1669      1672
      1669      1672      1675      1676      1669      1672      1675      1677
      1669      1672      1675      1678      1670      1669      1672      1673
      1670      1669      1672      1674      1670      1669      1672      1675
      1671      1669      1672      1673      1671      1669      1672      1674
      1671      1669      1672      1675      1672      1675      1678      1679
      1672      1675      1678      1680      1672      1675      1678      1681
      1673      1672      1675      1676      1673      1672      1675      1677
      1673      1672      1675      1678      1674      1672      1675      1676
      1674      1672      1675      1677      1674      1672      1675      1678
      1675      1678      1681      1682      1675      1678      1681      1683
      1675      1678      1681      1684      1676      1675      1678      1679
      1676      1675      1678      1680      1676      1675      1678      1681
      1677      1675      1678      1679      1677      1675      1678      1680
      1677      1675      1678      1681      1678      1681      1684      1685
      1678      1681      1684      1686      1678      1681      1684      1687
      1679      1678      1681      1682      1679      1678      1681      1683
      1679      1678      1681      1684      1680      1678      1681      1682
      1680      1678      1681      1683      1680      1678      1681      1684
      1681      1684      1687      1688      1681      1684      1687      1689
      1681      1684      1687      1690      1682      1681      1684      1685
      1682      1681      1684      1686      1682      1681      1684      1687
      1683      1681      1684      1685      1683      1681      1684      1686
      1683      1681      1684      1687      1685      1684      1687      1688
      1685      1684      1687      1689      1685      1684      1687      1690
      1686      1684      1687      1688      1686      1684      1687      1689
      1686      1684      1687      1690      1691      1704      1707      1708
      1691      1704      1707      1709      1691      1704      1707      1714
      1692      1691      1696      1697      1692      1691      1696      1698
      1692      1691      1696      1699      1692      1691      1700      1701
      1692      1691      1700      1702      1692      1691      1700      1703
      1692      1691      1704      1705      1692      1691      1704      1706
      1692      1691      1704      1707      1693      1692      1691      1696
      1693      1692      1691      1700      1693      1692      1691      1704
      1694      1692      1691      1696      1694      1692      1691      1700
      1694      1692      1691      1704      1695      1692      1691      1696
      1695      1692      1691      1700      1695      1692      1691      1704
      1696      1691      1700      1701      1696      1691      1700      1702
      1696      1691      1700      1703      1696      1691      1704      1705
      1696      1691      1704      1706      1696      1691      1704      1707
      1697      1696      1691      1700      1697      1696      1691      1704
      1698      1696      1691      1700      1698      1696      1691      1704
      1699      1696      1691      1700      1699      1696      1691      1704
      1700      1691      1704      1705      1700      1691      1704      1706
      1700      1691      1704      1707      1701      1700      1691      1704
      1702      1700      1691      1704      1703      1700      1691      1704
      1704      1707      1714      1710      1705      1704      1707      1708
      1705      1704      1707      1709      1705      1704      1707      1714
      1706      1704      1707      1708      1706      1704      1707      1709
      1706      1704      1707      1714      1707      1714      1710      1711
      1707      1714      1710      1712      1707      1714      1710      1713
      1708      1707      1714      1710      1709      1707      1714      1710
      1710      1713      1715      1716      1710      1713      1715      1717
      1710      1713      1715      1718      1711      1710      1713      1715
      1712      1710      1713      1715      1713      1715      1718      1719
      1713      1715      1718      1720      1713      1715      1718      1726
      1714      1710      1713      1715      1715      1718      1720      1721
      1715      1718      1726      1727      1715      1718      1726      1728
      1715      1718      1726      1729      1716      1715      1718      1719
      1716      1715      1718      1720      1716      1715      1718      1726
      1717      1715      1718      1719      1717      1715      1718      1720
      1717      1715      1718      1726      1718      1720      1721      1722
      1718      1720      1721      1723      1718      1726      1729      1730
      1719      1718      1720      1721      1719      1718      1726      1727
      1719      1718      1726      1728      1719      1718      1726      1729
      1720      1718      1726      1727      1720      1718      1726      1728
      1720      1718      1726      1729      1720      1721      1723      1724
      1720      1721      1723      1725      1720      1721      1723      1735
      1721      1720      1718      1726      1721      1723      1735      1736
      1721      1723      1735      1737      1721      1723      1735      1738
      1722      1721      1723      1724      1722      1721      1723      1725
      1722      1721      1723      1735      1723      1735      1738      1739
      1723      1735      1738      1740      1723      1735      1738      1741
      1724      1723      1735      1736      1724      1723      1735      1737
      1724      1723      1735      1738      1725      1723      1735      1736
      1725      1723      1735      1737      1725      1723      1735      1738
      1726      1729      1730      1731      1726      1729      1730      1732
      1727      1726      1729      1730      1728      1726      1729      1730
      1729      1730      1732      1733      1729      1730      1732      1734
      1729      1730      1732      1778      1730      1732      1778      1779
      1730      1732      1778      1780      1730      1732      1778      1781
      1731      1730      1732      1733      1731      1730      1732      1734
      1731      1730      1732      1778      1732      1778      1781      1782
      1732      1778      1781      1783      1732      1778      1781      1784
      1733      1732      1778      1779      1733      1732      1778      1780
      1733      1732      1778      1781      1734      1732      1778      1779
      1734      1732      1778      1780      1734      1732      1778      1781
      1735      1738      1741      1742      1735      1738      1741      1743
      1735      1738      1741      1744      1736      1735      1738      1739
      1736      1735      1738      1740      1736      1735      1738      1741
      1737      1735      1738      1739      1737      1735      1738      1740
      1737      1735      1738      1741      1738      1741      1744      1745
      1738      1741      1744      1746      1738      1741      1744      1747
      1739      1738      1741      1742      1739      1738      1741      1743
      1739      1738      1741      1744      1740      1738      1741      1742
      1740      1738      1741      1743      1740      1738      1741      1744
      1741      1744      1747      1748      1741      1744      1747      1749
      1741      1744      1747      1750      1742      1741      1744      1745
      1742      1741      1744      1746      1742      1741      1744      1747
      1743      1741      1744      1745      1743      1741      1744      1746
      1743      1741      1744      1747      1744      1747      1750      1751
      1744      1747      1750      1752      1744      1747      1750      1753
      1745      1744      1747      1748      1745      1744      1747      1749
      1745      1744      1747      1750      1746      1744      1747      1748
      1746      1744      1747      1749      1746      1744      1747      1750
      1747      1750      1753      1754      1747      1750      1753      1755
      1747      1750      1753      1756      1748      1747      1750      1751
      1748      1747      1750      1752      1748      1747      1750      1753
      1749      1747      1750      1751      1749      1747      1750      1752
      1749      1747      1750      1753      1750      1753      1756      1757
      1750      1753      1756      1758      1750      1753      1756      1759
      1751      1750      1753      1754      1751      1750      1753      1755
      1751      1750      1753      1756      1752      1750      1753      1754
      1752      1750      1753      1755      1752      1750      1753      1756
      1753      1756      1759      1760      1753      1756      1759      1761
      1753      1756      1759      1762      1754      1753      1756      1757
      1754      1753      1756      1758      1754      1753      1756      1759
      1755      1753      1756      1757      1755      1753      1756      1758
      1755      1753      1756      1759      1756      1759      1762      1763
      1756      1759      1762      1764      1756      1759      1762      1765
      1757      1756      1759      1760      1757      1756      1759      1761
      1757      1756      1759      1762      1758      1756      1759      1760
      1758      1756      1759      1761      1758      1756      1759      1762
      1759      1762      1765      1766      1759      1762      1765      1767
      1759      1762      1765      1768      1760      1759      1762      1763
      1760      1759      1762      1764      1760      1759      1762      1765
      1761      1759      1762      1763      1761      1759      1762      1764
      1761      1759      1762      1765      1762      1765      1768      1769
      1762      1765      1768      1770      1762      1765      1768      1771
      1763      1762      1765      1766      1763      1762      1765      1767
      1763      1762      1765      1768      1764      1762      1765      1766
      1764      1762      1765      1767      1764      1762      1765      1768
      1765      1768      1771      1772      1765      1768      1771      1773
      1765      1768      1771      1774      1766      1765      1768      1769
      1766      1765      1768      1770      1766      1765      1768      1771
      1767      1765      1768      1769      1767      1765      1768      1770
      1767      1765      1768      1771      1768      1771      1774      1775
      1768      1771      1774      1776      1768      1771      1774      1777
      1769      1768      1771      1772      1769      1768      1771      1773
      1769      1768      1771      1774      1770      1768      1771      1772
      1770      1768      1771      1773      1770      1768      1771      1774
      1772      1771      1774      1775      1772      1771      1774      1776
      1772      1771      1774      1777      1773      1771      1774      1775
      1773      1771      1774      1776      1773      1771      1774      1777
      1778      1781      1784      1785      1778      1781      1784      1786
      1778      1781      1784      1787      1779      1778      1781      1782
      1779      1778      1781      1783      1779      1778      1781      1784
      1780      1778      1781      1782      1780      1778      1781      1783
      1780      1778      1781      1784      1781      1784      1787      1788
      1781      1784      1787      1789      1781      1784      1787      1790
      1782      1781      1784      1785      1782      1781      1784      1786
      1782      1781      1784      1787      1783      1781      1784      1785
      1783      1781      1784      1786      1783      1781      1784      1787
      1784      1787      1790      1791      1784      1787      1790      1792
      1784      1787      1790      1793      1785      1784      1787      1788
      1785      1784      1787      1789      1785      1784      1787      1790
      1786      1784      1787      1788      1786      1784      1787      1789
      1786      1784      1787      1790      1787      1790      1793      1794
      1787      1790      1793      1795      1787      1790      1793      1796
      1788      1787      1790      1791      1788      1787      1790      1792
      1788      1787      1790      1793      1789      1787      1790      1791
      1789      1787      1790      1792      1789      1787      1790      1793
      1790      1793      1796      1797      1790      1793      1796      1798
      1790      1793      1796      1799      1791      1790      1793      1794
      1791      1790      1793      1795      1791      1790      1793      1796
      1792      1790      1793      1794      1792      1790      1793      1795
      1792      1790      1793      1796      1793      1796      1799      1800
      1793      1796      1799      1801      1793      1796      1799      1802
      1794      1793      1796      1797      1794      1793      1796      1798
      1794      1793      1796      1799      1795      1793      1796      1797
      1795      1793      1796      1798      1795      1793      1796      1799
      1796      1799      1802      1803      1796      1799      1802      1804
      1796      1799      1802      1805      1797      1796      1799      1800
      1797      1796      1799      1801      1797      1796      1799      1802
      1798      1796      1799      1800      1798      1796      1799      1801
      1798      1796      1799      1802      1799      1802      1805      1806
      1799      1802      1805      1807      1799      1802      1805      1808
      1800      1799      1802      1803      1800      1799      1802      1804
      1800      1799      1802      1805      1801      1799      1802      1803
      1801      1799      1802      1804      1801      1799      1802      1805
      1802      1805      1808      1809      1802      1805      1808      1810
      1802      1805      1808      1811      1803      1802      1805      1806
      1803      1802      1805      1807      1803      1802      1805      1808
      1804      1802      1805      1806      1804      1802      1805      1807
      1804      1802      1805      1808      1805      1808      1811      1812
      1805      1808      1811      1813      1805      1808      1811      1814
      1806      1805      1808      1809      1806      1805      1808      1810
      1806      1805      1808      1811      1807      1805      1808      1809
      1807      1805      1808      1810      1807      1805      1808      1811
      1808      1811      1814      1815      1808      1811      1814      1816
      1808      1811      1814      1817      1809      1808      1811      1812
      1809      1808      1811      1813      1809      1808      1811      1814
      1810      1808      1811      1812      1810      1808      1811      1813
      1810      1808      1811      1814      1811      1814      1817      1818
      1811      1814      1817      1819      1811      1814      1817      1820
      1812      1811      1814      1815      1812      1811      1814      1816
      1812      1811      1814      1817      1813      1811      1814      1815
      1813      1811      1814      1816      1813      1811      1814      1817
      1815      1814      1817      1818      1815      1814      1817      1819
      1815      1814      1817      1820      1816      1814      1817      1818
      1816      1814      1817      1819      1816      1814      1817      1820
      1821      1834      1837      1838      1821      1834      1837      1839
      1821      1834      1837      1844      1822      1821      1826      1827
      1822      1821      1826      1828      1822      1821      1826      1829
      1822      1821      1830      1831      1822      1821      1830      1832
      1822      1821      1830      1833      1822      1821      1834      1835
      1822      1821      1834      1836      1822      1821      1834      1837
      1823      1822      1821      1826      1823      1822      1821      1830
      1823      1822      1821      1834      1824      1822      1821      1826
      1824      1822      1821      1830      1824      1822      1821      1834
      1825      1822      1821      1826      1825      1822      1821      1830
      1825      1822      1821      1834      1826      1821      1830      1831
      1826      1821      1830      1832      1826      1821      1830      1833
      1826      1821      1834      1835      1826      1821      1834      1836
      1826      1821      1834      1837      1827      1826      1821      1830
      1827      1826      1821      1834      1828      1826      1821      1830
      1828      1826      1821      1834      1829      1826      1821      1830
      1829      1826      1821      1834      1830      1821      1834      1835
      1830      1821      1834      1836      1830      1821      1834      1837
      1831      1830      1821      1834      1832      1830      1821      1834
      1833      1830      1821      1834      1834      1837      1844      1840
      1835      1834      1837      1838      1835      1834      1837      1839
      1835      1834      1837      1844      1836      1834      1837      1838
      1836      1834      1837      1839      1836      1834      1837      1844
      1837      1844      1840      1841      1837      1844      1840      1842
      1837      1844      1840      1843      1838      1837      1844      1840
      1839      1837      1844      1840      1840      1843      1845      1846
      1840      1843      1845      1847      1840      1843      1845      1848
      1841      1840      1843      1845      1842      1840      1843      1845
      1843      1845      1848      1849      1843      1845      1848      1850
      1843      1845      1848      1856      1844      1840      1843      1845
      1845      1848      1850      1851      1845      1848      1856      1857
      1845      1848      1856      1858      1845      1848      1856      1859
      1846      1845      1848      1849      1846      1845      1848      1850
      1846      1845      1848      1856      1847      1845      1848      1849
      1847      1845      1848      1850      1847      1845      1848      1856
      1848      1850      1851      1852      1848      1850      1851      1853
      1848      1856      1859      1860      1849      1848      1850      1851
      1849      1848      1856      1857      1849      1848      1856      1858
      1849      1848      1856      1859      1850      1848      1856      1857
      1850      1848      1856      1858      1850      1848      1856      1859
      1850      1851      1853      1854      1850      1851      1853      1855
      1850      1851      1853      1865      1851      1850      1848      1856
      1851      1853      1865      1866      1851      1853      1865      1867
      1851      1853      1865      1868      1852      1851      1853      1854
      1852      1851      1853      1855      1852      1851      1853      1865
      1853      1865      1868      1869      1853      1865      1868      1870
      1853      1865      1868      1871      1854      1853      1865      1866
      1854      1853      1865      1867      1854      1853      1865      1868
      1855      1853      1865      1866      1855      1853      1865      1867
      1855      1853      1865      1868      1856      1859      1860      1861
      1856      1859      1860      1862      1857      1856      1859      1860
      1858      1856      1859      1860      1859      1860      1862      1863
      1859      1860      1862      1864      1859      1860      1862      1908
      1860      1862      1908      1909      1860      1862      1908      1910
      1860      1862      1908      1911      1861      1860      1862      1863
      1861      1860      1862      1864      1861      1860      1862      1908
      1862      1908      1911      1912      1862      1908      1911      1913
      1862      1908      1911      1914      1863      1862      1908      1909
      1863      1862      1908      1910      1863      1862      1908      1911
      1864      1862      1908      1909      1864      1862      1908      1910
      1864      1862      1908      1911      1865      1868      1871      1872
      1865      1868      1871      1873      1865      1868      1871      1874
      1866      1865      1868      1869      1866      1865      1868      1870
      1866      1865      1868      1871      1867      1865      1868      1869
      1867      1865      1868      1870      1867      1865      1868      1871
      1868      1871      1874      1875      1868      1871      1874      1876
      1868      1871      1874      1877      1869      1868      1871      1872
      1869      1868      1871      1873      1869      1868      1871      1874
      1870      1868      1871      1872      1870      1868      1871      1873
      1870      1868      1871      1874      1871      1874      1877      1878
      1871      1874      1877      1879      1871      1874      1877      1880
      1872      1871      1874      1875      1872      1871      1874      1876
      1872      1871      1874      1877      1873      1871      1874      1875
      1873      1871      1874      1876      1873      1871      1874      1877
      1874      1877      1880      1881      1874      1877      1880      1882
      1874      1877      1880      1883      1875      1874      1877      1878
      1875      1874      1877      1879      1875      1874      1877      1880
      1876      1874      1877      1878      1876      1874      1877      1879
      1876      1874      1877      1880      1877      1880      1883      1884
      1877      1880      1883      1885      1877      1880      1883      1886
      1878      1877      1880      1881      1878      1877      1880      1882
      1878      1877      1880      1883      1879      1877      1880      1881
      1879      1877      1880      1882      1879      1877      1880      1883
      1880      1883      1886      1887      1880      1883      1886      1888
      1880      1883      1886      1889      1881      1880      1883      1884
      1881      1880      1883      1885      1881      1880      1883      1886
      1882      1880      1883      1884      1882      1880      1883      1885
      1882      1880      1883      1886      1883      1886      1889      1890
      1883      1886      1889      1891      1883      1886      1889      1892
      1884      1883      1886      1887      1884      1883      1886      1888
      1884      1883      1886      1889      1885      1883      1886      1887
      1885      1883      1886      1888      1885      1883      1886      1889
      1886      1889      1892      1893      1886      1889      1892      1894
      1886      1889      1892      1895      1887      1886      1889      1890
      1887      1886      1889      1891      1887      1886      1889      1892
      1888      1886      1889      1890      1888      1886      1889      1891
      1888      1886      1889      1892      1889      1892      1895      1896
      1889      1892      1895      1897      1889      1892      1895      1898
      1890      1889      1892      1893      1890      1889      1892      1894
      1890      1889      1892      1895      1891      1889      1892      1893
      1891      1889      1892      1894      1891      1889      1892      1895
      1892      1895      1898      1899      1892      1895      1898      1900
      1892      1895      1898      1901      1893      1892      1895      1896
      1893      1892      1895      1897      1893      1892      1895      1898
      1894      1892      1895      1896      1894      1892      1895      1897
      1894      1892      1895      1898      1895      1898      1901      1902
      1895      1898      1901      1903      1895      1898      1901      1904
      1896      1895      1898      1899      1896      1895      1898      1900
      1896      1895      1898      1901      1897      1895      1898      1899
      1897      1895      1898      1900      1897      1895      1898      1901
      1898      1901      1904      1905      1898      1901      1904      1906
      1898      1901      1904      1907      1899      1898      1901      1902
      1899      1898      1901      1903      1899      1898      1901      1904
      1900      1898      1901      1902      1900      1898      1901      1903
      1900      1898      1901      1904      1902      1901      1904      1905
      1902      1901      1904      1906      1902      1901      1904      1907
      1903      1901      1904      1905      1903      1901      1904      1906
      1903      1901      1904      1907      1908      1911      1914      1915
      1908      1911      1914      1916      1908      1911      1914      1917
      1909      1908      1911      1912      1909      1908      1911      1913
      1909      1908      1911      1914      1910      1908      1911      1912
      1910      1908      1911      1913      1910      1908      1911      1914
      1911      1914      1917      1918      1911      1914      1917      1919
      1911      1914      1917      1920      1912      1911      1914      1915
      1912      1911      1914      1916      1912      1911      1914      1917
      1913      1911      1914      1915      1913      1911      1914      1916
      1913      1911      1914      1917      1914      1917      1920      1921
      1914      1917      1920      1922      1914      1917      1920      1923
      1915      1914      1917      1918      1915      1914      1917      1919
      1915      1914      1917      1920      1916      1914      1917      1918
      1916      1914      1917      1919      1916      1914      1917      1920
      1917      1920      1923      1924      1917      1920      1923      1925
      1917      1920      1923      1926      1918      1917      1920      1921
      1918      1917      1920      1922      1918      1917      1920      1923
      1919      1917      1920      1921      1919      1917      1920      1922
      1919      1917      1920      1923      1920      1923      1926      1927
      1920      1923      1926      1928      1920      1923      1926      1929
      1921      1920      1923      1924      1921      1920      1923      1925
      1921      1920      1923      1926      1922      1920      1923      1924
      1922      1920      1923      1925      1922      1920      1923      1926
      1923      1926      1929      1930      1923      1926      1929      1931
      1923      1926      1929      1932      1924      1923      1926      1927
      1924      1923      1926      1928      1924      1923      1926      1929
      1925      1923      1926      1927      1925      1923      1926      1928
      1925      1923      1926      1929      1926      1929      1932      1933
      1926      1929      1932      1934      1926      1929      1932      1935
      1927      1926      1929      1930      1927      1926      1929      1931
      1927      1926      1929      1932      1928      1926      1929      1930
      1928      1926      1929      1931      1928      1926      1929      1932
      1929      1932      1935      1936      1929      1932      1935      1937
      1929      1932      1935      1938      1930      1929      1932      1933
      1930      1929      1932      1934      1930      1929      1932      1935
      1931      1929      1932      1933      1931      1929      1932      1934
      1931      1929      1932      1935      1932      1935      1938      1939
      1932      1935      1938      1940      1932      1935      1938      1941
      1933      1932      1935      1936      1933      1932      1935      1937
      1933      1932      1935      1938      1934      1932      1935      1936
      1934      1932      1935      1937      1934      1932      1935      1938
      1935      1938      1941      1942      1935      1938      1941      1943
      1935      1938      1941      1944      1936      1935      1938      1939
      1936      1935      1938      1940      1936      1935      1938      1941
      1937      1935      1938      1939      1937      1935      1938      1940
      1937      1935      1938      1941      1938      1941      1944      1945
      1938      1941      1944      1946      1938      1941      1944      1947
      1939      1938      1941      1942      1939      1938      1941      1943
      1939      1938      1941      1944      1940      1938      1941      1942
      1940      1938      1941      1943      1940      1938      1941      1944
      1941      1944      1947      1948      1941      1944      1947      1949
      1941      1944      1947      1950      1942      1941      1944      1945
      1942      1941      1944      1946      1942      1941      1944      1947
      1943      1941      1944      1945      1943      1941      1944      1946
      1943      1941      1944      1947      1945      1944      1947      1948
      1945      1944      1947      1949      1945      1944      1947      1950
      1946      1944      1947      1948      1946      1944      1947      1949
      1946      1944      1947      1950      1951      1964      1967      1968
      1951      1964      1967      1969      1951      1964      1967      1974
      1952      1951      1956      1957      1952      1951      1956      1958
      1952      1951      1956      1959      1952      1951      1960      1961
      1952      1951      1960      1962      1952      1951      1960      1963
      1952      1951      1964      1965      1952      1951      1964      1966
      1952      1951      1964      1967      1953      1952      1951      1956
      1953      1952      1951      1960      1953      1952      1951      1964
      1954      1952      1951      1956      1954      1952      1951      1960
      1954      1952      1951      1964      1955      1952      1951      1956
      1955      1952      1951      1960      1955      1952      1951      1964
      1956      1951      1960      1961      1956      1951      1960      1962
      1956      1951      1960      1963      1956      1951      1964      1965
      1956      1951      1964      1966      1956      1951      1964      1967
      1957      1956      1951      1960      1957      1956      1951      1964
      1958      1956      1951      1960      1958      1956      1951      1964
      1959      1956      1951      1960      1959      1956      1951      1964
      1960      1951      1964      1965      1960      1951      1964      1966
      1960      1951      1964      1967      1961      1960      1951      1964
      1962      1960      1951      1964      1963      1960      1951      1964
      1964      1967      1974      1970      1965      1964      1967      1968
      1965      1964      1967      1969      1965      1964      1967      1974
      1966      1964      1967      1968      1966      1964      1967      1969
      1966      1964      1967      1974      1967      1974      1970      1971
      1967      1974      1970      1972      1967      1974      1970      1973
      1968      1967      1974      1970      1969      1967      1974      1970
      1970      1973      1975      1976      1970      1973      1975      1977
      1970      1973      1975      1978      1971      1970      1973      1975
      1972      1970      1973      1975      1973      1975      1978      1979
      1973      1975      1978      1980      1973      1975      1978      1986
      1974      1970      1973      1975      1975      1978      1980      1981
      1975      1978      1986      1987      1975      1978      1986      1988
      1975      1978      1986      1989      1976      1975      1978      1979
      1976      1975      1978      1980      1976      1975      1978      1986
      1977      1975      1978      1979      1977      1975      1978      1980
      1977      1975      1978      1986      1978      1980      1981      1982
      1978      1980      1981      1983      1978      1986      1989      1990
      1979      1978      1980      1981      1979      1978      1986      1987
      1979      1978      1986      1988      1979      1978      1986      1989
      1980      1978      1986      1987      1980      1978      1986      1988
      1980      1978      1986      1989      1980      1981      1983      1984
      1980      1981      1983      1985      1980      1981      1983      1995
      1981      1980      1978      1986      1981      1983      1995      1996
      1981      1983      1995      1997      1981      1983      1995      1998
      1982      1981      1983      1984      1982      1981      1983      1985
      1982      1981      1983      1995      1983      1995      1998      1999
      1983      1995      1998      2000      1983      1995      1998      2001
      1984      1983      1995      1996      1984      1983      1995      1997
      1984      1983      1995      1998      1985      1983      1995      1996
      1985      1983      1995      1997      1985      1983      1995      1998
      1986      1989      1990      1991      1986      1989      1990      1992
      1987      1986      1989      1990      1988      1986      1989      1990
      1989      1990      1992      1993      1989      1990      1992      1994
      1989      1990      1992      2038      1990      1992      2038      2039
      1990      1992      2038      2040      1990      1992      2038      2041
      1991      1990      1992      1993      1991      1990      1992      1994
      1991      1990      1992      2038      1992      2038      2041      2042
      1992      2038      2041      2043      1992      2038      2041      2044
      1993      1992      2038      2039      1993      1992      2038      2040
      1993      1992      2038      2041      1994      1992      2038      2039
      1994      1992      2038      2040      1994      1992      2038      2041
      1995      1998      2001      2002      1995      1998      2001      2003
      1995      1998      2001      2004      1996      1995      1998      1999
      1996      1995      1998      2000      1996      1995      1998      2001
      1997      1995      1998      1999      1997      1995      1998      2000
      1997      1995      1998      2001      1998      2001      2004      2005
      1998      2001      2004      2006      1998      2001      2004      2007
      1999      1998      2001      2002      1999      1998      2001      2003
      1999      1998      2001      2004      2000      1998      2001      2002
      2000      1998      2001      2003      2000      1998      2001      2004
      2001      2004      2007      2008      2001      2004      2007      2009
      2001      2004      2007      2010      2002      2001      2004      2005
      2002      2001      2004      2006      2002      2001      2004      2007
      2003      2001      2004      2005      2003      2001      2004      2006
      2003      2001      2004      2007      2004      2007      2010      2011
      2004      2007      2010      2012      2004      2007      2010      2013
      2005      2004      2007      2008      2005      2004      2007      2009
      2005      2004      2007      2010      2006      2004      2007      2008
      2006      2004      2007      2009      2006      2004      2007      2010
      2007      2010      2013      2014      2007      2010      2013      2015
      2007      2010      2013      2016      2008      2007      2010      2011
      2008      2007      2010      2012      2008      2007      2010      2013
      2009      2007      2010      2011      2009      2007      2010      2012
      2009      2007      2010      2013      2010      2013      2016      2017
      2010      2013      2016      2018      2010      2013      2016      2019
      2011      2010      2013      2014      2011      2010      2013      2015
      2011      2010      2013      2016      2012      2010      2013      2014
      2012      2010      2013      2015      2012      2010      2013      2016
      2013      2016      2019      2020      2013      2016      2019      2021
      2013      2016      2019      2022      2014      2013      2016      2017
      2014      2013      2016      2018      2014      2013      2016      2019
      2015      2013      2016      2017      2015      2013      2016      2018
      2015      2013      2016      2019      2016      2019      2022      2023
      2016      2019      2022      2024      2016      2019      2022      2025
      2017      2016      2019      2020      2017      2016      2019      2021
      2017      2016      2019      2022      2018      2016      2019      2020
      2018      2016      2019      2021      2018      2016      2019      2022
      2019      2022      2025      2026      2019      2022      2025      2027
      2019      2022      2025      2028      2020      2019      2022      2023
      2020      2019      2022      2024      2020      2019      2022      2025
      2021      2019      2022      2023      2021      2019      2022      2024
      2021      2019      2022      2025      2022      2025      2028      2029
      2022      2025      2028      2030      2022      2025      2028      2031
      2023      2022      2025      2026      2023      2022      2025      2027
      2023      2022      2025      2028      2024      2022      2025      2026
      2024      2022      2025      2027      2024      2022      2025      2028
      2025      2028      2031      2032      2025      2028      2031      2033
      2025      2028      2031      2034      2026      2025      2028      2029
      2026      2025      2028      2030      2026      2025      2028      2031
      2027      2025      2028      2029      2027      2025      2028      2030
      2027      2025      2028      2031      2028      2031      2034      2035
      2028      2031      2034      2036      2028      2031      2034      2037
      2029      2028      2031      2032      2029      2028      2031      2033
      2029      2028      2031      2034      2030      2028      2031      2032
      2030      2028      2031      2033      2030      2028      2031      2034
      2032      2031      2034      2035      2032      2031      2034      2036
      2032      2031      2034      2037      2033      2031      2034      2035
      2033      2031      2034      2036      2033      2031      2034      2037
      2038      2041      2044      2045      2038      2041      2044      2046
      2038      2041      2044      2047      2039      2038      2041      2042
      2039      2038      2041      2043      2039      2038      2041      2044
      2040      2038      2041      2042      2040      2038      2041      2043
      2040      2038      2041      2044      2041      2044      2047      2048
      2041      2044      2047      2049      2041      2044      2047      2050
      2042      2041      2044      2045      2042      2041      2044      2046
      2042      2041      2044      2047      2043      2041      2044      2045
      2043      2041      2044      2046      2043      2041      2044      2047
      2044      2047      2050      2051      2044      2047      2050      2052
      2044      2047      2050      2053      2045      2044      2047      2048
      2045      2044      2047      2049      2045      2044      2047      2050
      2046      2044      2047      2048      2046      2044      2047      2049
      2046      2044      2047      2050      2047      2050      2053      2054
      2047      2050      2053      2055      2047      2050      2053      2056
      2048      2047      2050      2051      2048      2047      2050      2052
      2048      2047      2050      2053      2049      2047      2050      2051
      2049      2047      2050      2052      2049      2047      2050      2053
      2050      2053      2056      2057      2050      2053      2056      2058
      2050      2053      2056      2059      2051      2050      2053      2054
      2051      2050      2053      2055      2051      2050      2053      2056
      2052      2050      2053      2054      2052      2050      2053      2055
      2052      2050      2053      2056      2053      2056      2059      2060
      2053      2056      2059      2061      2053      2056      2059      2062
      2054      2053      2056      2057      2054      2053      2056      2058
      2054      2053      2056      2059      2055      2053      2056      2057
      2055      2053      2056      2058      2055      2053      2056      2059
      2056      2059      2062      2063      2056      2059      2062      2064
      2056      2059      2062      2065      2057      2056      2059      2060
      2057      2056      2059      2061      2057      2056      2059      2062
      2058      2056      2059      2060      2058      2056      2059      2061
      2058      2056      2059      2062      2059      2062      2065      2066
      2059      2062      2065      2067      2059      2062      2065      2068
      2060      2059      2062      2063      2060      2059      2062      2064
      2060      2059      2062      2065      2061      2059      2062      2063
      2061      2059      2062      2064      2061      2059      2062      2065
      2062      2065      2068      2069      2062      2065      2068      2070
      2062      2065      2068      2071      2063      2062      2065      2066
      2063      2062      2065      2067      2063      2062      2065      2068
      2064      2062      2065      2066      2064      2062      2065      2067
      2064      2062      2065      2068      2065      2068      2071      2072
      2065      2068      2071      2073      2065      2068      2071      2074
      2066      2065      2068      2069      2066      2065      2068      2070
      2066      2065      2068      2071      2067      2065      2068      2069
      2067      2065      2068      2070      2067      2065      2068      2071
      2068      2071      2074      2075      2068      2071      2074      2076
      2068      2071      2074      2077      2069      2068      2071      2072
      2069      2068      2071      2073      2069      2068      2071      2074
      2070      2068      2071      2072      2070      2068      2071      2073
      2070      2068      2071      2074      2071      2074      2077      2078
      2071      2074      2077      2079      2071      2074      2077      2080
      2072      2071      2074      2075      2072      2071      2074      2076
      2072      2071      2074      2077      2073      2071      2074      2075
      2073      2071      2074      2076      2073      2071      2074      2077
      2075      2074      2077      2078      2075      2074      2077      2079
      2075      2074      2077      2080      2076      2074      2077      2078
      2076      2074      2077      2079      2076      2074      2077      2080
      2081      2094      2097      2098      2081      2094      2097      2099
      2081      2094      2097      2104      2082      2081      2086      2087
      2082      2081      2086      2088      2082      2081      2086      2089
      2082      2081      2090      2091      2082      2081      2090      2092
      2082      2081      2090      2093      2082      2081      2094      2095
      2082      2081      2094      2096      2082      2081      2094      2097
      2083      2082      2081      2086      2083      2082      2081      2090
      2083      2082      2081      2094      2084      2082      2081      2086
      2084      2082      2081      2090      2084      2082      2081      2094
      2085      2082      2081      2086      2085      2082      2081      2090
      2085      2082      2081      2094      2086      2081      2090      2091
      2086      2081      2090      2092      2086      2081      2090      2093
      2086      2081      2094      2095      2086      2081      2094      2096
      2086      2081      2094      2097      2087      2086      2081      2090
      2087      2086      2081      2094      2088      2086      2081      2090
      2088      2086      2081      2094      2089      2086      2081      2090
      2089      2086      2081      2094      2090      2081      2094      2095
      2090      2081      2094      2096      2090      2081      2094      2097
      2091      2090      2081      2094      2092      2090      2081      2094
      2093      2090      2081      2094      2094      2097      2104      2100
      2095      2094      2097      2098      2095      2094      2097      2099
      2095      2094      2097      2104      2096      2094      2097      2098
      2096      2094      2097      2099      2096      2094      2097      2104
      2097      2104      2100      2101      2097      2104      2100      2102
      2097      2104      2100      2103      2098      2097      2104      2100
      2099      2097      2104      2100      2100      2103      2105      2106
      2100      2103      2105      2107      2100      2103      2105      2108
      2101      2100      2103      2105      2102      2100      2103      2105
      2103      2105      2108      2109      2103      2105      2108      2110
      2103      2105      2108      2116      2104      2100      2103      2105
      2105      2108      2110      2111      2105      2108      2116      2117
      2105      2108      2116      2118      2105      2108      2116      2119
      2106      2105      2108      2109      2106      2105      2108      2110
      2106      2105      2108      2116      2107      2105      2108      2109
      2107      2105      2108      2110      2107      2105      2108      2116
      2108      2110      2111      2112      2108      2110      2111      2113
      2108      2116      2119      2120      2109      2108      2110      2111
      2109      2108      2116      2117      2109      2108      2116      2118
      2109      2108      2116      2119      2110      2108      2116      2117
      2110      2108      2116      2118      2110      2108      2116      2119
      2110      2111      2113      2114      2110      2111      2113      2115
      2110      2111      2113      2125      2111      2110      2108      2116
      2111      2113      2125      2126      2111      2113      2125      2127
      2111      2113      2125      2128      2112      2111      2113      2114
      2112      2111      2113      2115      2112      2111      2113      2125
      2113      2125      2128      2129      2113      2125      2128      2130
      2113      2125      2128      2131      2114      2113      2125      2126
      2114      2113      2125      2127      2114      2113      2125      2128
      2115      2113      2125      2126      2115      2113      2125      2127
      2115      2113      2125      2128      2116      2119      2120      2121
      2116      2119      2120      2122      2117      2116      2119      2120
      2118      2116      2119      2120      2119      2120      2122      2123
      2119      2120      2122      2124      2119      2120      2122      2168
      2120      2122      2168      2169      2120      2122      2168      2170
      2120      2122      2168      2171      2121      2120      2122      2123
      2121      2120      2122      2124      2121      2120      2122      2168
      2122      2168      2171      2172      2122      2168      2171      2173
      2122      2168      2171      2174      2123      2122      2168      2169
      2123      2122      2168      2170      2123      2122      2168      2171
      2124      2122      2168      2169      2124      2122      2168      2170
      2124      2122      2168      2171      2125      2128      2131      2132
      2125      2128      2131      2133      2125      2128      2131      2134
      2126      2125      2128      2129      2126      2125      2128      2130
      2126      2125      2128      2131      2127      2125      2128      2129
      2127      2125      2128      2130      2127      2125      2128      2131
      2128      2131      2134      2135      2128      2131      2134      2136
      2128      2131      2134      2137      2129      2128      2131      2132
      2129      2128      2131      2133      2129      2128      2131      2134
      2130      2128      2131      2132      2130      2128      2131      2133
      2130      2128      2131      2134      2131      2134      2137      2138
      2131      2134      2137      2139      2131      2134      2137      2140
      2132      2131      2134      2135      2132      2131      2134      2136
      2132      2131      2134      2137      2133      2131      2134      2135
      2133      2131      2134      2136      2133      2131      2134      2137
      2134      2137      2140      2141      2134      2137      2140      2142
      2134      2137      2140      2143      2135      2134      2137      2138
      2135      2134      2137      2139      2135      2134      2137      2140
      2136      2134      2137      2138      2136      2134      2137      2139
      2136      2134      2137      2140      2137      2140      2143      2144
      2137      2140      2143      2145      2137      2140      2143      2146
      2138      2137      2140      2141      2138      2137      2140      2142
      2138      2137      2140      2143      2139      2137      2140      2141
      2139      2137      2140      2142      2139      2137      2140      2143
      2140      2143      2146      2147      2140      2143      2146      2148
      2140      2143      2146      2149      2141      2140      2143      2144
      2141      2140      2143      2145      2141      2140      2143      2146
      2142      2140      2143      2144      2142      2140      2143      2145
      2142      2140      2143      2146      2143      2146      2149      2150
      2143      2146      2149      2151      2143      2146      2149      2152
      2144      2143      2146      2147      2144      2143      2146      2148
      2144      2143      2146      2149      2145      2143      2146      2147
      2145      2143      2146      2148      2145      2143      2146      2149
      2146      2149      2152      2153      2146      2149      2152      2154
      2146      2149      2152      2155      2147      2146      2149      2150
      2147      2146      2149      2151      2147      2146      2149      2152
      2148      2146      2149      2150      2148      2146      2149      2151
      2148      2146      2149      2152      2149      2152      2155      2156
      2149      2152      2155      2157      2149      2152      2155      2158
      2150      2149      2152      2153      2150      2149      2152      2154
      2150      2149      2152      2155      2151      2149      2152      2153
      2151      2149      2152      2154      2151      2149      2152      2155
      2152      2155      2158      2159      2152      2155      2158      2160
      2152      2155      2158      2161      2153      2152      2155      2156
      2153      2152      2155      2157      2153      2152      2155      2158
      2154      2152      2155      2156      2154      2152      2155      2157
      2154      2152      2155      2158      2155      2158      2161      2162
      2155      2158      2161      2163      2155      2158      2161      2164
      2156      2155      2158      2159      2156      2155      2158      2160
      2156      2155      2158      2161      2157      2155      2158      2159
      2157      2155      2158      2160      2157      2155      2158      2161
      2158      2161      2164      2165      2158      2161      2164      2166
      2158      2161      2164      2167      2159      2158      2161      2162
      2159      2158      2161      2163      2159      2158      2161      2164
      2160      2158      2161      2162      2160      2158      2161      2163
      2160      2158      2161      2164      2162      2161      2164      2165
      2162      2161      2164      2166      2162      2161      2164      2167
      2163      2161      2164      2165      2163      2161      2164      2166
      2163      2161      2164      2167      2168      2171      2174      2175
      2168      2171      2174      2176      2168      2171      2174      2177
      2169      2168      2171      2172      2169      2168      2171      2173
      2169      2168      2171      2174      2170      2168      2171      2172
      2170      2168      2171      2173      2170      2168      2171      2174
      2171      2174      2177      2178      2171      2174      2177      2179
      2171      2174      2177      2180      2172      2171      2174      2175
      2172      2171      2174      2176      2172      2171      2174      2177
      2173      2171      2174      2175      2173      2171      2174      2176
      2173      2171      2174      2177      2174      2177      2180      2181
      2174      2177      2180      2182      2174      2177      2180      2183
      2175      2174      2177      2178      2175      2174      2177      2179
      2175      2174      2177      2180      2176      2174      2177      2178
      2176      2174      2177      2179      2176      2174      2177      2180
      2177      2180      2183      2184      2177      2180      2183      2185
      2177      2180      2183      2186      2178      2177      2180      2181
      2178      2177      2180      2182      2178      2177      2180      2183
      2179      2177      2180      2181      2179      2177      2180      2182
      2179      2177      2180      2183      2180      2183      2186      2187
      2180      2183      2186      2188      2180      2183      2186      2189
      2181      2180      2183      2184      2181      2180      2183      2185
      2181      2180      2183      2186      2182      2180      2183      2184
      2182      2180      2183      2185      2182      2180      2183      2186
      2183      2186      2189      2190      2183      2186      2189      2191
      2183      2186      2189      2192      2184      2183      2186      2187
      2184      2183      2186      2188      2184      2183      2186      2189
      2185      2183      2186      2187      2185      2183      2186      2188
      2185      2183      2186      2189      2186      2189      2192      2193
      2186      2189      2192      2194      2186      2189      2192      2195
      2187      2186      2189      2190      2187      2186      2189      2191
      2187      2186      2189      2192      2188      2186      2189      2190
      2188      2186      2189      2191      2188      2186      2189      2192
      2189      2192      2195      2196      2189      2192      2195      2197
      2189      2192      2195      2198      2190      2189      2192      2193
      2190      2189      2192      2194      2190      2189      2192      2195
      2191      2189      2192      2193      2191      2189      2192      2194
      2191      2189      2192      2195      2192      2195      2198      2199
      2192      2195      2198      2200      2192      2195      2198      2201
      2193      2192      2195      2196      2193      2192      2195      2197
      2193      2192      2195      2198      2194      2192      2195      2196
      2194      2192      2195      2197      2194      2192      2195      2198
      2195      2198      2201      2202      2195      2198      2201      2203
      2195      2198      2201      2204      2196      2195      2198      2199
      2196      2195      2198      2200      2196      2195      2198      2201
      2197      2195      2198      2199      2197      2195      2198      2200
      2197      2195      2198      2201      2198      2201      2204      2205
      2198      2201      2204      2206      2198      2201      2204      2207
      2199      2198      2201      2202      2199      2198      2201      2203
      2199      2198      2201      2204      2200      2198      2201      2202
      2200      2198      2201      2203      2200      2198      2201      2204
      2201      2204      2207      2208      2201      2204      2207      2209
      2201      2204      2207      2210      2202      2201      2204      2205
      2202      2201      2204      2206      2202      2201      2204      2207
      2203      2201      2204      2205      2203      2201      2204      2206
      2203      2201      2204      2207      2205      2204      2207      2208
      2205      2204      2207      2209      2205      2204      2207      2210
      2206      2204      2207      2208      2206      2204      2207      2209
      2206      2204      2207      2210      2211      2224      2227      2228
      2211      2224      2227      2229      2211      2224      2227      2234
      2212      2211      2216      2217      2212      2211      2216      2218
      2212      2211      2216      2219      2212      2211      2220      2221
      2212      2211      2220      2222      2212      2211      2220      2223
      2212      2211      2224      2225      2212      2211      2224      2226
      2212      2211      2224      2227      2213      2212      2211      2216
      2213      2212      2211      2220      2213      2212      2211      2224
      2214      2212      2211      2216      2214      2212      2211      2220
      2214      2212      2211      2224      2215      2212      2211      2216
      2215      2212      2211      2220      2215      2212      2211      2224
      2216      2211      2220      2221      2216      2211      2220      2222
      2216      2211      2220      2223      2216      2211      2224      2225
      2216      2211      2224      2226      2216      2211      2224      2227
      2217      2216      2211      2220      2217      2216      2211      2224
      2218      2216      2211      2220      2218      2216      2211      2224
      2219      2216      2211      2220      2219      2216      2211      2224
      2220      2211      2224      2225      2220      2211      2224      2226
      2220      2211      2224      2227      2221      2220      2211      2224
      2222      2220      2211      2224      2223      2220      2211      2224
      2224      2227      2234      2230      2225      2224      2227      2228
      2225      2224      2227      2229      2225      2224      2227      2234
      2226      2224      2227      2228      2226      2224      2227      2229
      2226      2224      2227      2234      2227      2234      2230      2231
      2227      2234      2230      2232      2227      2234      2230      2233
      2228      2227      2234      2230      2229      2227      2234      2230
      2230      2233      2235      2236      2230      2233      2235      2237
      2230      2233      2235      2238      2231      2230      2233      2235
      2232      2230      2233      2235      2233      2235      2238      2239
      2233      2235      2238      2240      2233      2235      2238      2246
      2234      2230      2233      2235      2235      2238      2240      2241
      2235      2238      2246      2247      2235      2238      2246      2248
      2235      2238      2246      2249      2236      2235      2238      2239
      2236      2235      2238      2240      2236      2235      2238      2246
      2237      2235      2238      2239      2237      2235      2238      2240
      2237      2235      2238      2246      2238      2240      2241      2242
      2238      2240      2241      2243      2238      2246      2249      2250
      2239      2238      2240      2241      2239      2238      2246      2247
      2239      2238      2246      2248      2239      2238      2246      2249
      2240      2238      2246      2247      2240      2238      2246      2248
      2240      2238      2246      2249      2240      2241      2243      2244
      2240      2241      2243      2245      2240      2241      2243      2255
      2241      2240      2238      2246      2241      2243      2255      2256
      2241      2243      2255      2257      2241      2243      2255      2258
      2242      2241      2243      2244      2242      2241      2243      2245
      2242      2241      2243      2255      2243      2255      2258      2259
      2243      2255      2258      2260      2243      2255      2258      2261
      2244      2243      2255      2256      2244      2243      2255      2257
      2244      2243      2255      2258      2245      2243      2255      2256
      2245      2243      2255      2257      2245      2243      2255      2258
      2246      2249      2250      2251      2246      2249      2250      2252
      2247      2246      2249      2250      2248      2246      2249      2250
      2249      2250      2252      2253      2249      2250      2252      2254
      2249      2250      2252      2298      2250      2252      2298      2299
      2250      2252      2298      2300      2250      2252      2298      2301
      2251      2250      2252      2253      2251      2250      2252      2254
      2251      2250      2252      2298      2252      2298      2301      2302
      2252      2298      2301      2303      2252      2298      2301      2304
      2253      2252      2298      2299      2253      2252      2298      2300
      2253      2252      2298      2301      2254      2252      2298      2299
      2254      2252      2298      2300      2254      2252      2298      2301
      2255      2258      2261      2262      2255      2258      2261      2263
      2255      2258      2261      2264      2256      2255      2258      2259
      2256      2255      2258      2260      2256      2255      2258      2261
      2257      2255      2258      2259      2257      2255      2258      2260
      2257      2255      2258      2261      2258      2261      2264      2265
      2258      2261      2264      2266      2258      2261      2264      2267
      2259      2258      2261      2262      2259      2258      2261      2263
      2259      2258      2261      2264      2260      2258      2261      2262
      2260      2258      2261      2263      2260      2258      2261      2264
      2261      2264      2267      2268      2261      2264      2267      2269
      2261      2264      2267      2270      2262      2261      2264      2265
      2262      2261      2264      2266      2262      2261      2264      2267
      2263      2261      2264      2265      2263      2261      2264      2266
      2263      2261      2264      2267      2264      2267      2270      2271
      2264      2267      2270      2272      2264      2267      2270      2273
      2265      2264      2267      2268      2265      2264      2267      2269
      2265      2264      2267      2270      2266      2264      2267      2268
      2266      2264      2267      2269      2266      2264      2267      2270
      2267      2270      2273      2274      2267      2270      2273      2275
      2267      2270      2273      2276      2268      2267      2270      2271
      2268      2267      2270      2272      2268      2267      2270      2273
      2269      2267      2270      2271      2269      2267      2270      2272
      2269      2267      2270      2273      2270      2273      2276      2277
      2270      2273      2276      2278      2270      2273      2276      2279
      2271      2270      2273      2274      2271      2270      2273      2275
      2271      2270      2273      2276      2272      2270      2273      2274
      2272      2270      2273      2275      2272      2270      2273      2276
      2273      2276      2279      2280      2273      2276      2279      2281
      2273      2276      2279      2282      2274      2273      2276      2277
      2274      2273      2276      2278      2274      2273      2276      2279
      2275      2273      2276      2277      2275      2273      2276      2278
      2275      2273      2276      2279      2276      2279      2282      2283
      2276      2279      2282      2284      2276      2279      2282      2285
      2277      2276      2279      2280      2277      2276      2279      2281
      2277      2276      2279      2282      2278      2276      2279      2280
      2278      2276      2279      2281      2278      2276      2279      2282
      2279      2282      2285      2286      2279      2282      2285      2287
      2279      2282      2285      2288      2280      2279      2282      2283
      2280      2279      2282      2284      2280      2279      2282      2285
      2281      2279      2282      2283      2281      2279      2282      2284
      2281      2279      2282      2285      2282      2285      2288      2289
      2282      2285      2288      2290      2282      2285      2288      2291
      2283      2282      2285      2286      2283      2282      2285      2287
      2283      2282      2285      2288      2284      2282      2285      2286
      2284      2282      2285      2287      2284      2282      2285      2288
      2285      2288      2291      2292      2285      2288      2291      2293
      2285      2288      2291      2294      2286      2285      2288      2289
      2286      2285      2288      2290      2286      2285      2288      2291
      2287      2285      2288      2289      2287      2285      2288      2290
      2287      2285      2288      2291      2288      2291      2294      2295
      2288      2291      2294      2296      2288      2291      2294      2297
      2289      2288      2291      2292      2289      2288      2291      2293
      2289      2288      2291      2294      2290      2288      2291      2292
      2290      2288      2291      2293      2290      2288      2291      2294
      2292      2291      2294      2295      2292      2291      2294      2296
      2292      2291      2294      2297      2293      2291      2294      2295
      2293      2291      2294      2296      2293      2291      2294      2297
      2298      2301      2304      2305      2298      2301      2304      2306
      2298      2301      2304      2307      2299      2298      2301      2302
      2299      2298      2301      2303      2299      2298      2301      2304
      2300      2298      2301      2302      2300      2298      2301      2303
      2300      2298      2301      2304      2301      2304      2307      2308
      2301      2304      2307      2309      2301      2304      2307      2310
      2302      2301      2304      2305      2302      2301      2304      2306
      2302      2301      2304      2307      2303      2301      2304      2305
      2303      2301      2304      2306      2303      2301      2304      2307
      2304      2307      2310      2311      2304      2307      2310      2312
      2304      2307      2310      2313      2305      2304      2307      2308
      2305      2304      2307      2309      2305      2304      2307      2310
      2306      2304      2307      2308      2306      2304      2307      2309
      2306      2304      2307      2310      2307      2310      2313      2314
      2307      2310      2313      2315      2307      2310      2313      2316
      2308      2307      2310      2311      2308      2307      2310      2312
      2308      2307      2310      2313      2309      2307      2310      2311
      2309      2307      2310      2312      2309      2307      2310      2313
      2310      2313      2316      2317      2310      2313      2316      2318
      2310      2313      2316      2319      2311      2310      2313      2314
      2311      2310      2313      2315      2311      2310      2313      2316
      2312      2310      2313      2314      2312      2310      2313      2315
      2312      2310      2313      2316      2313      2316      2319      2320
      2313      2316      2319      2321      2313      2316      2319      2322
      2314      2313      2316      2317      2314      2313      2316      2318
      2314      2313      2316      2319      2315      2313      2316      2317
      2315      2313      2316      2318      2315      2313      2316      2319
      2316      2319      2322      2323      2316      2319      2322      2324
      2316      2319      2322      2325      2317      2316      2319      2320
      2317      2316      2319      2321      2317      2316      2319      2322
      2318      2316      2319      2320      2318      2316      2319      2321
      2318      2316      2319      2322      2319      2322      2325      2326
      2319      2322      2325      2327      2319      2322      2325      2328
      2320      2319      2322      2323      2320      2319      2322      2324
      2320      2319      2322      2325      2321      2319      2322      2323
      2321      2319      2322      2324      2321      2319      2322      2325
      2322      2325      2328      2329      2322      2325      2328      2330
      2322      2325      2328      2331      2323      2322      2325      2326
      2323      2322      2325      2327      2323      2322      2325      2328
      2324      2322      2325      2326      2324      2322      2325      2327
      2324      2322      2325      2328      2325      2328      2331      2332
      2325      2328      2331      2333      2325      2328      2331      2334
      2326      2325      2328      2329      2326      2325      2328      2330
      2326      2325      2328      2331      2327      2325      2328      2329
      2327      2325      2328      2330      2327      2325      2328      2331
      2328      2331      2334      2335      2328      2331      2334      2336
      2328      2331      2334      2337      2329      2328      2331      2332
      2329      2328      2331      2333      2329      2328      2331      2334
      2330      2328      2331      2332      2330      2328      2331      2333
      2330      2328      2331      2334      2331      2334      2337      2338
      2331      2334      2337      2339      2331      2334      2337      2340
      2332      2331      2334      2335      2332      2331      2334      2336
      2332      2331      2334      2337      2333      2331      2334      2335
      2333      2331      2334      2336      2333      2331      2334      2337
      2335      2334      2337      2338      2335      2334      2337      2339
      2335      2334      2337      2340      2336      2334      2337      2338
      2336      2334      2337      2339      2336      2334      2337      2340
      2341      2354      2357      2358      2341      2354      2357      2359
      2341      2354      2357      2364      2342      2341      2346      2347
      2342      2341      2346      2348      2342      2341      2346      2349
      2342      2341      2350      2351      2342      2341      2350      2352
      2342      2341      2350      2353      2342      2341      2354      2355
      2342      2341      2354      2356      2342      2341      2354      2357
      2343      2342      2341      2346      2343      2342      2341      2350
      2343      2342      2341      2354      2344      2342      2341      2346
      2344      2342      2341      2350      2344      2342      2341      2354
      2345      2342      2341      2346      2345      2342      2341      2350
      2345      2342      2341      2354      2346      2341      2350      2351
      2346      2341      2350      2352      2346      2341      2350      2353
      2346      2341      2354      2355      2346      2341      2354      2356
      2346      2341      2354      2357      2347      2346      2341      2350
      2347      2346      2341      2354      2348      2346      2341      2350
      2348      2346      2341      2354      2349      2346      2341      2350
      2349      2346      2341      2354      2350      2341      2354      2355
      2350      2341      2354      2356      2350      2341      2354      2357
      2351      2350      2341      2354      2352      2350      2341      2354
      2353      2350      2341      2354      2354      2357      2364      2360
      2355      2354      2357      2358      2355      2354      2357      2359
      2355      2354      2357      2364      2356      2354      2357      2358
      2356      2354      2357      2359      2356      2354      2357      2364
      2357      2364      2360      2361      2357      2364      2360      2362
      2357      2364      2360      2363      2358      2357      2364      2360
      2359      2357      2364      2360      2360      2363      2365      2366
      2360      2363      2365      2367      2360      2363      2365      2368
      2361      2360      2363      2365      2362      2360      2363      2365
      2363      2365      2368      2369      2363      2365      2368      2370
      2363      2365      2368      2376      2364      2360      2363      2365
      2365      2368      2370      2371      2365      2368      2376      2377
      2365      2368      2376      2378      2365      2368      2376      2379
      2366      2365      2368      2369      2366      2365      2368      2370
      2366      2365      2368      2376      2367      2365      2368      2369
      2367      2365      2368      2370      2367      2365      2368      2376
      2368      2370      2371      2372      2368      2370      2371      2373
      2368      2376      2379      2380      2369      2368      2370      2371
      2369      2368      2376      2377      2369      2368      2376      2378
      2369      2368      2376      2379      2370      2368      2376      2377
      2370      2368      2376      2378      2370      2368      2376      2379
      2370      2371      2373      2374      2370      2371      2373      2375
      2370      2371      2373      2385      2371      2370      2368      2376
      2371      2373      2385      2386      2371      2373      2385      2387
      2371      2373      2385      2388      2372      2371      2373      2374
      2372      2371      2373      2375      2372      2371      2373      2385
      2373      2385      2388      2389      2373      2385      2388      2390
      2373      2385      2388      2391      2374      2373      2385      2386
      2374      2373      2385      2387      2374      2373      2385      2388
      2375      2373      2385      2386      2375      2373      2385      2387
      2375      2373      2385      2388      2376      2379      2380      2381
      2376      2379      2380      2382      2377      2376      2379      2380
      2378      2376      2379      2380      2379      2380      2382      2383
      2379      2380      2382      2384      2379      2380      2382      2428
      2380      2382      2428      2429      2380      2382      2428      2430
      2380      2382      2428      2431      2381      2380      2382      2383
      2381      2380      2382      2384      2381      2380      2382      2428
      2382      2428      2431      2432      2382      2428      2431      2433
      2382      2428      2431      2434      2383      2382      2428      2429
      2383      2382      2428      2430      2383      2382      2428      2431
      2384      2382      2428      2429      2384      2382      2428      2430
      2384      2382      2428      2431      2385      2388      2391      2392
      2385      2388      2391      2393      2385      2388      2391      2394
      2386      2385      2388      2389      2386      2385      2388      2390
      2386      2385      2388      2391      2387      2385      2388      2389
      2387      2385      2388      2390      2387      2385      2388      2391
      2388      2391      2394      2395      2388      2391      2394      2396
      2388      2391      2394      2397      2389      2388      2391      2392
      2389      2388      2391      2393      2389      2388      2391      2394
      2390      2388      2391      2392      2390      2388      2391      2393
      2390      2388      2391      2394      2391      2394      2397      2398
      2391      2394      2397      2399      2391      2394      2397      2400
      2392      2391      2394      2395      2392      2391      2394      2396
      2392      2391      2394      2397      2393      2391      2394      2395
      2393      2391      2394      2396      2393      2391      2394      2397
      2394      2397      2400      2401      2394      2397      2400      2402
      2394      2397      2400      2403      2395      2394      2397      2398
      2395      2394      2397      2399      2395      2394      2397      2400
      2396      2394      2397      2398      2396      2394      2397      2399
      2396      2394      2397      2400      2397      2400      2403      2404
      2397      2400      2403      2405      2397      2400      2403      2406
      2398      2397      2400      2401      2398      2397      2400      2402
      2398      2397      2400      2403      2399      2397      2400      2401
      2399      2397      2400      2402      2399      2397      2400      2403
      2400      2403      2406      2407      2400      2403      2406      2408
      2400      2403      2406      2409      2401      2400      2403      2404
      2401      2400      2403      2405      2401      2400      2403      2406
      2402      2400      2403      2404      2402      2400      2403      2405
      2402      2400      2403      2406      2403      2406      2409      2410
      2403      2406      2409      2411      2403      2406      2409      2412
      2404      2403      2406      2407      2404      2403      2406      2408
      2404      2403      2406      2409      2405      2403      2406      2407
      2405      2403      2406      2408      2405      2403      2406      2409
      2406      2409      2412      2413      2406      2409      2412      2414
      2406      2409      2412      2415      2407      2406      2409      2410
      2407      2406      2409      2411      2407      2406      2409      2412
      2408      2406      2409      2410      2408      2406      2409      2411
      2408      2406      2409      2412      2409      2412      2415      2416
      2409      2412      2415      2417      2409      2412      2415      2418
      2410      2409      2412      2413      2410      2409      2412      2414
      2410      2409      2412      2415      2411      2409      2412      2413
      2411      2409      2412      2414      2411      2409      2412      2415
      2412      2415      2418      2419      2412      2415      2418      2420
      2412      2415      2418      2421      2413      2412      2415      2416
      2413      2412      2415      2417      2413      2412      2415      2418
      2414      2412      2415      2416      2414      2412      2415      2417
      2414      2412      2415      2418      2415      2418      2421      2422
      2415      2418      2421      2423      2415      2418      2421      2424
      2416      2415      2418      2419      2416      2415      2418      2420
      2416      2415      2418      2421      2417      2415      2418      2419
      2417      2415      2418      2420      2417      2415      2418      2421
      2418      2421      2424      2425      2418      2421      2424      2426
      2418      2421      2424      2427      2419      2418      2421      2422
      2419      2418      2421      2423      2419      2418      2421      2424
      2420      2418      2421      2422      2420      2418      2421      2423
      2420      2418      2421      2424      2422      2421      2424      2425
      2422      2421      2424      2426      2422      2421      2424      2427
      2423      2421      2424      2425      2423      2421      2424      2426
      2423      2421      2424      2427      2428      2431      2434      2435
      2428      2431      2434      2436      2428      2431      2434      2437
      2429      2428      2431      2432      2429      2428      2431      2433
      2429      2428      2431      2434      2430      2428      2431      2432
      2430      2428      2431      2433      2430      2428      2431      2434
      2431      2434      2437      2438      2431      2434      2437      2439
      2431      2434      2437      2440      2432      2431      2434      2435
      2432      2431      2434      2436      2432      2431      2434      2437
      2433      2431      2434      2435      2433      2431      2434      2436
      2433      2431      2434      2437      2434      2437      2440      2441
      2434      2437      2440      2442      2434      2437      2440      2443
      2435      2434      2437      2438      2435      2434      2437      2439
      2435      2434      2437      2440      2436      2434      2437      2438
      2436      2434      2437      2439      2436      2434      2437      2440
      2437      2440      2443      2444      2437      2440      2443      2445
      2437      2440      2443      2446      2438      2437      2440      2441
      2438      2437      2440      2442      2438      2437      2440      2443
      2439      2437      2440      2441      2439      2437      2440      2442
      2439      2437      2440      2443      2440      2443      2446      2447
      2440      2443      2446      2448      2440      2443      2446      2449
      2441      2440      2443      2444      2441      2440      2443      2445
      2441      2440      2443      2446      2442      2440      2443      2444
      2442      2440      2443      2445      2442      2440      2443      2446
      2443      2446      2449      2450      2443      2446      2449      2451
      2443      2446      2449      2452      2444      2443      2446      2447
      2444      2443      2446      2448      2444      2443      2446      2449
      2445      2443      2446      2447      2445      2443      2446      2448
      2445      2443      2446      2449      2446      2449      2452      2453
      2446      2449      2452      2454      2446      2449      2452      2455
      2447      2446      2449      2450      2447      2446      2449      2451
      2447      2446      2449      2452      2448      2446      2449      2450
      2448      2446      2449      2451      2448      2446      2449      2452
      2449      2452      2455      2456      2449      2452      2455      2457
      2449      2452      2455      2458      2450      2449      2452      2453
      2450      2449      2452      2454      2450      2449      2452      2455
      2451      2449      2452      2453      2451      2449      2452      2454
      2451      2449      2452      2455      2452      2455      2458      2459
      2452      2455      2458      2460      2452      2455      2458      2461
      2453      2452      2455      2456      2453      2452      2455      2457
      2453      2452      2455      2458      2454      2452      2455      2456
      2454      2452      2455      2457      2454      2452      2455      2458
      2455      2458      2461      2462      2455      2458      2461      2463
      2455      2458      2461      2464      2456      2455      2458      2459
      2456      2455      2458      2460      2456      2455      2458      2461
      2457      2455      2458      2459      2457      2455      2458      2460
      2457      2455      2458      2461      2458      2461      2464      2465
      2458      2461      2464      2466      2458      2461      2464      2467
      2459      2458      2461      2462      2459      2458      2461      2463
      2459      2458      2461      2464      2460      2458      2461      2462
      2460      2458      2461      2463      2460      2458      2461      2464
      2461      2464      2467      2468      2461      2464      2467      2469
      2461      2464      2467      2470      2462      2461      2464      2465
      2462      2461      2464      2466      2462      2461      2464      2467
      2463      2461      2464      2465      2463      2461      2464      2466
      2463      2461      2464      2467      2465      2464      2467      2468
      2465      2464      2467      2469      2465      2464      2467      2470
      2466      2464      2467      2468      2466      2464      2467      2469
      2466      2464      2467      2470      2471      2484      2487      2488
      2471      2484      2487      2489      2471      2484      2487      2494
      2472      2471      2476      2477      2472      2471      2476      2478
      2472      2471      2476      2479      2472      2471      2480      2481
      2472      2471      2480      2482      2472      2471      2480      2483
      2472      2471      2484      2485      2472      2471      2484      2486
      2472      2471      2484      2487      2473      2472      2471      2476
      2473      2472      2471      2480      2473      2472      2471      2484
      2474      2472      2471      2476      2474      2472      2471      2480
      2474      2472      2471      2484      2475      2472      2471      2476
      2475      2472      2471      2480      2475      2472      2471      2484
      2476      2471      2480      2481      2476      2471      2480      2482
      2476      2471      2480      2483      2476      2471      2484      2485
      2476      2471      2484      2486      2476      2471      2484      2487
      2477      2476      2471      2480      2477      2476      2471      2484
      2478      2476      2471      2480      2478      2476      2471      2484
      2479      2476      2471      2480      2479      2476      2471      2484
      2480      2471      2484      2485      2480      2471      2484      2486
      2480      2471      2484      2487      2481      2480      2471      2484
      2482      2480      2471      2484      2483      2480      2471      2484
      2484      2487      2494      2490      2485      2484      2487      2488
      2485      2484      2487      2489      2485      2484      2487      2494
      2486      2484      2487      2488      2486      2484      2487      2489
      2486      2484      2487      2494      2487      2494      2490      2491
      2487      2494      2490      2492      2487      2494      2490      2493
      2488      2487      2494      2490      2489      2487      2494      2490
      2490      2493      2495      2496      2490      2493      2495      2497
      2490      2493      2495      2498      2491      2490      2493      2495
      2492      2490      2493      2495      2493      2495      2498      2499
      2493      2495      2498      2500      2493      2495      2498      2506
      2494      2490      2493      2495      2495      2498      2500      2501
      2495      2498      2506      2507      2495      2498      2506      2508
      2495      2498      2506      2509      2496      2495      2498      2499
      2496      2495      2498      2500      2496      2495      2498      2506
      2497      2495      2498      2499      2497      2495      2498      2500
      2497      2495      2498      2506      2498      2500      2501      2502
      2498      2500      2501      2503      2498      2506      2509      2510
      2499      2498      2500      2501      2499      2498      2506      2507
      2499      2498      2506      2508      2499      2498      2506      2509
      2500      2498      2506      2507      2500      2498      2506      2508
      2500      2498      2506      2509      2500      2501      2503      2504
      2500      2501      2503      2505      2500      2501      2503      2515
      2501      2500      2498      2506      2501      2503      2515      2516
      2501      2503      2515      2517      2501      2503      2515      2518
      2502      2501      2503      2504      2502      2501      2503      2505
      2502      2501      2503      2515      2503      2515      2518      2519
      2503      2515      2518      2520      2503      2515      2518      2521
      2504      2503      2515      2516      2504      2503      2515      2517
      2504      2503      2515      2518      2505      2503      2515      2516
      2505      2503      2515      2517      2505      2503      2515      2518
      2506      2509      2510      2511      2506      2509      2510      2512
      2507      2506      2509      2510      2508      2506      2509      2510
      2509      2510      2512      2513      2509      2510      2512      2514
      2509      2510      2512      2558      2510      2512      2558      2559
      2510      2512      2558      2560      2510      2512      2558      2561
      2511      2510      2512      2513      2511      2510      2512      2514
      2511      2510      2512      2558      2512      2558      2561      2562
      2512      2558      2561      2563      2512      2558      2561      2564
      2513      2512      2558      2559      2513      2512      2558      2560
      2513      2512      2558      2561      2514      2512      2558      2559
      2514      2512      2558      2560      2514      2512      2558      2561
      2515      2518      2521      2522      2515      2518      2521      2523
      2515      2518      2521      2524      2516      2515      2518      2519
      2516      2515      2518      2520      2516      2515      2518      2521
      2517      2515      2518      2519      2517      2515      2518      2520
      2517      2515      2518      2521      2518      2521      2524      2525
      2518      2521      2524      2526      2518      2521      2524      2527
      2519      2518      2521      2522      2519      2518      2521      2523
      2519      2518      2521      2524      2520      2518      2521      2522
      2520      2518      2521      2523      2520      2518      2521      2524
      2521      2524      2527      2528      2521      2524      2527      2529
      2521      2524      2527      2530      2522      2521      2524      2525
      2522      2521      2524      2526      2522      2521      2524      2527
      2523      2521      2524      2525      2523      2521      2524      2526
      2523      2521      2524      2527      2524      2527      2530      2531
      2524      2527      2530      2532      2524      2527      2530      2533
      2525      2524      2527      2528      2525      2524      2527      2529
      2525      2524      2527      2530      2526      2524      2527      2528
      2526      2524      2527      2529      2526      2524      2527      2530
      2527      2530      2533      2534      2527      2530      2533      2535
      2527      2530      2533      2536      2528      2527      2530      2531
      2528      2527      2530      2532      2528      2527      2530      2533
      2529      2527      2530      2531      2529      2527      2530      2532
      2529      2527      2530      2533      2530      2533      2536      2537
      2530      2533      2536      2538      2530      2533      2536      2539
      2531      2530      2533      2534      2531      2530      2533      2535
      2531      2530      2533      2536      2532      2530      2533      2534
      2532      2530      2533      2535      2532      2530      2533      2536
      2533      2536      2539      2540      2533      2536      2539      2541
      2533      2536      2539      2542      2534      2533      2536      2537
      2534      2533      2536      2538      2534      2533      2536      2539
      2535      2533      2536      2537      2535      2533      2536      2538
      2535      2533      2536      2539      2536      2539      2542      2543
      2536      2539      2542      2544      2536      2539      2542      2545
      2537      2536      2539      2540      2537      2536      2539      2541
      2537      2536      2539      2542      2538      2536      2539      2540
      2538      2536      2539      2541      2538      2536      2539      2542
      2539      2542      2545      2546      2539      2542      2545      2547
      2539      2542      2545      2548      2540      2539      2542      2543
      2540      2539      2542      2544      2540      2539      2542      2545
      2541      2539      2542      2543      2541      2539      2542      2544
      2541      2539      2542      2545      2542      2545      2548      2549
      2542      2545      2548      2550      2542      2545      2548      2551
      2543      2542      2545      2546      2543      2542      2545      2547
      2543      2542      2545      2548      2544      2542      2545      2546
      2544      2542      2545      2547      2544      2542      2545      2548
      2545      2548      2551      2552      2545      2548      2551      2553
      2545      2548      2551      2554      2546      2545      2548      2549
      2546      2545      2548      2550      2546      2545      2548      2551
      2547      2545      2548      2549      2547      2545      2548      2550
      2547      2545      2548      2551      2548      2551      2554      2555
      2548      2551      2554      2556      2548      2551      2554      2557
      2549      2548      2551      2552      2549      2548      2551      2553
      2549      2548      2551      2554      2550      2548      2551      2552
      2550      2548      2551      2553      2550      2548      2551      2554
      2552      2551      2554      2555      2552      2551      2554      2556
      2552      2551      2554      2557      2553      2551      2554      2555
      2553      2551      2554      2556      2553      2551      2554      2557
      2558      2561      2564      2565      2558      2561      2564      2566
      2558      2561      2564      2567      2559      2558      2561      2562
      2559      2558      2561      2563      2559      2558      2561      2564
      2560      2558      2561      2562      2560      2558      2561      2563
      2560      2558      2561      2564      2561      2564      2567      2568
      2561      2564      2567      2569      2561      2564      2567      2570
      2562      2561      2564      2565      2562      2561      2564      2566
      2562      2561      2564      2567      2563      2561      2564      2565
      2563      2561      2564      2566      2563      2561      2564      2567
      2564      2567      2570      2571      2564      2567      2570      2572
      2564      2567      2570      2573      2565      2564      2567      2568
      2565      2564      2567      2569      2565      2564      2567      2570
      2566      2564      2567      2568      2566      2564      2567      2569
      2566      2564      2567      2570      2567      2570      2573      2574
      2567      2570      2573      2575      2567      2570      2573      2576
      2568      2567      2570      2571      2568      2567      2570      2572
      2568      2567      2570      2573      2569      2567      2570      2571
      2569      2567      2570      2572      2569      2567      2570      2573
      2570      2573      2576      2577      2570      2573      2576      2578
      2570      2573      2576      2579      2571      2570      2573      2574
      2571      2570      2573      2575      2571      2570      2573      2576
      2572      2570      2573      2574      2572      2570      2573      2575
      2572      2570      2573      2576      2573      2576      2579      2580
      2573      2576      2579      2581      2573      2576      2579      2582
      2574      2573      2576      2577      2574      2573      2576      2578
      2574      2573      2576      2579      2575      2573      2576      2577
      2575      2573      2576      2578      2575      2573      2576      2579
      2576      2579      2582      2583      2576      2579      2582      2584
      2576      2579      2582      2585      2577      2576      2579      2580
      2577      2576      2579      2581      2577      2576      2579      2582
      2578      2576      2579      2580      2578      2576      2579      2581
      2578      2576      2579      2582      2579      2582      2585      2586
      2579      2582      2585      2587      2579      2582      2585      2588
      2580      2579      2582      2583      2580      2579      2582      2584
      2580      2579      2582      2585      2581      2579      2582      2583
      2581      2579      2582      2584      2581      2579      2582      2585
      2582      2585      2588      2589      2582      2585      2588      2590
      2582      2585      2588      2591      2583      2582      2585      2586
      2583      2582      2585      2587      2583      2582      2585      2588
      2584      2582      2585      2586      2584      2582      2585      2587
      2584      2582      2585      2588      2585      2588      2591      2592
      2585      2588      2591      2593      2585      2588      2591      2594
      2586      2585      2588      2589      2586      2585      2588      2590
      2586      2585      2588      2591      2587      2585      2588      2589
      2587      2585      2588      2590      2587      2585      2588      2591
      2588      2591      2594      2595      2588      2591      2594      2596
      2588      2591      2594      2597      2589      2588      2591      2592
      2589      2588      2591      2593      2589      2588      2591      2594
      2590      2588      2591      2592      2590      2588      2591      2593
      2590      2588      2591      2594      2591      2594      2597      2598
      2591      2594      2597      2599      2591      2594      2597      2600
      2592      2591      2594      2595      2592      2591      2594      2596
      2592      2591      2594      2597      2593      2591      2594      2595
      2593      2591      2594      2596      2593      2591      2594      2597
      2595      2594      2597      2598      2595      2594      2597      2599
      2595      2594      2597      2600      2596      2594      2597      2598
      2596      2594      2597      2599      2596      2594      2597      2600
      2601      2614      2617      2618      2601      2614      2617      2619
      2601      2614      2617      2624      2602      2601      2606      2607
      2602      2601      2606      2608      2602      2601      2606      2609
      2602      2601      2610      2611      2602      2601      2610      2612
      2602      2601      2610      2613      2602      2601      2614      2615
      2602      2601      2614      2616      2602      2601      2614      2617
      2603      2602      2601      2606      2603      2602      2601      2610
      2603      2602      2601      2614      2604      2602      2601      2606
      2604      2602      2601      2610      2604      2602      2601      2614
      2605      2602      2601      2606      2605      2602      2601      2610
      2605      2602      2601      2614      2606      2601      2610      2611
      2606      2601      2610      2612      2606      2601      2610      2613
      2606      2601      2614      2615      2606      2601      2614      2616
      2606      2601      2614      2617      2607      2606      2601      2610
      2607      2606      2601      2614      2608      2606      2601      2610
      2608      2606      2601      2614      2609      2606      2601      2610
      2609      2606      2601      2614      2610      2601      2614      2615
      2610      2601      2614      2616      2610      2601      2614      2617
      2611      2610      2601      2614      2612      2610      2601      2614
      2613      2610      2601      2614      2614      2617      2624      2620
      2615      2614      2617      2618      2615      2614      2617      2619
      2615      2614      2617      2624      2616      2614      2617      2618
      2616      2614      2617      2619      2616      2614      2617      2624
      2617      2624      2620      2621      2617      2624      2620      2622
      2617      2624      2620      2623      2618      2617      2624      2620
      2619      2617      2624      2620      2620      2623      2625      2626
      2620      2623      2625      2627      2620      2623      2625      2628
      2621      2620      2623      2625      2622      2620      2623      2625
      2623      2625      2628      2629      2623      2625      2628      2630
      2623      2625      2628      2636      2624      2620      2623      2625
      2625      2628      2630      2631      2625      2628      2636      2637
      2625      2628      2636      2638      2625      2628      2636      2639
      2626      2625      2628      2629      2626      2625      2628      2630
      2626      2625      2628      2636      2627      2625      2628      2629
      2627      2625      2628      2630      2627      2625      2628      2636
      2628      2630      2631      2632      2628      2630      2631      2633
      2628      2636      2639      2640      2629      2628      2630      2631
      2629      2628      2636      2637      2629      2628      2636      2638
      2629      2628      2636      2639      2630      2628      2636      2637
      2630      2628      2636      2638      2630      2628      2636      2639
      2630      2631      2633      2634      2630      2631      2633      2635
      2630      2631      2633      2645      2631      2630      2628      2636
      2631      2633      2645      2646      2631      2633      2645      2647
      2631      2633      2645      2648      2632      2631      2633      2634
      2632      2631      2633      2635      2632      2631      2633      2645
      2633      2645      2648      2649      2633      2645      2648      2650
      2633      2645      2648      2651      2634      2633      2645      2646
      2634      2633      2645      2647      2634      2633      2645      2648
      2635      2633      2645      2646      2635      2633      2645      2647
      2635      2633      2645      2648      2636      2639      2640      2641
      2636      2639      2640      2642      2637      2636      2639      2640
      2638      2636      2639      2640      2639      2640      2642      2643
      2639      2640      2642      2644      2639      2640      2642      2688
      2640      2642      2688      2689      2640      2642      2688      2690
      2640      2642      2688      2691      2641      2640      2642      2643
      2641      2640      2642      2644      2641      2640      2642      2688
      2642      2688      2691      2692      2642      2688      2691      2693
      2642      2688      2691      2694      2643      2642      2688      2689
      2643      2642      2688      2690      2643      2642      2688      2691
      2644      2642      2688      2689      2644      2642      2688      2690
      2644      2642      2688      2691      2645      2648      2651      2652
      2645      2648      2651      2653      2645      2648      2651      2654
      2646      2645      2648      2649      2646      2645      2648      2650
      2646      2645      2648      2651      2647      2645      2648      2649
      2647      2645      2648      2650      2647      2645      2648      2651
      2648      2651      2654      2655      2648      2651      2654      2656
      2648      2651      2654      2657      2649      2648      2651      2652
      2649      2648      2651      2653      2649      2648      2651      2654
      2650      2648      2651      2652      2650      2648      2651      2653
      2650      2648      2651      2654      2651      2654      2657      2658
      2651      2654      2657      2659      2651      2654      2657      2660
      2652      2651      2654      2655      2652      2651      2654      2656
      2652      2651      2654      2657      2653      2651      2654      2655
      2653      2651      2654      2656      2653      2651      2654      2657
      2654      2657      2660      2661      2654      2657      2660      2662
      2654      2657      2660      2663      2655      2654      2657      2658
      2655      2654      2657      2659      2655      2654      2657      2660
      2656      2654      2657      2658      2656      2654      2657      2659
      2656      2654      2657      2660      2657      2660      2663      2664
      2657      2660      2663      2665      2657      2660      2663      2666
      2658      2657      2660      2661      2658      2657      2660      2662
      2658      2657      2660      2663      2659      2657      2660      2661
      2659      2657      2660      2662      2659      2657      2660      2663
      2660      2663      2666      2667      2660      2663      2666      2668
      2660      2663      2666      2669      2661      2660      2663      2664
      2661      2660      2663      2665      2661      2660      2663      2666
      2662      2660      2663      2664      2662      2660      2663      2665
      2662      2660      2663      2666      2663      2666      2669      2670
      2663      2666      2669      2671      2663      2666      2669      2672
      2664      2663      2666      2667      2664      2663      2666      2668
      2664      2663      2666      2669      2665      2663      2666      2667
      2665      2663      2666      2668      2665      2663      2666      2669
      2666      2669      2672      2673      2666      2669      2672      2674
      2666      2669      2672      2675      2667      2666      2669      2670
      2667      2666      2669      2671      2667      2666      2669      2672
      2668      2666      2669      2670      2668      2666      2669      2671
      2668      2666      2669      2672      2669      2672      2675      2676
      2669      2672      2675      2677      2669      2672      2675      2678
      2670      2669      2672      2673      2670      2669      2672      2674
      2670      2669      2672      2675      2671      2669      2672      2673
      2671      2669      2672      2674      2671      2669      2672      2675
      2672      2675      2678      2679      2672      2675      2678      2680
      2672      2675      2678      2681      2673      2672      2675      2676
      2673      2672      2675      2677      2673      2672      2675      2678
      2674      2672      2675      2676      2674      2672      2675      2677
      2674      2672      2675      2678      2675      2678      2681      2682
      2675      2678      2681      2683      2675      2678      2681      2684
      2676      2675      2678      2679      2676      2675      2678      2680
      2676      2675      2678      2681      2677      2675      2678      2679
      2677      2675      2678      2680      2677      2675      2678      2681
      2678      2681      2684      2685      2678      2681      2684      2686
      2678      2681      2684      2687      2679      2678      2681      2682
      2679      2678      2681      2683      2679      2678      2681      2684
      2680      2678      2681      2682      2680      2678      2681      2683
      2680      2678      2681      2684      2682      2681      2684      2685
      2682      2681      2684      2686      2682      2681      2684      2687
      2683      2681      2684      2685      2683      2681      2684      2686
      2683      2681      2684      2687      2688      2691      2694      2695
      2688      2691      2694      2696      2688      2691      2694      2697
      2689      2688      2691      2692      2689      2688      2691      2693
      2689      2688      2691      2694      2690      2688      2691      2692
      2690      2688      2691      2693      2690      2688      2691      2694
      2691      2694      2697      2698      2691      2694      2697      2699
      2691      2694      2697      2700      2692      2691      2694      2695
      2692      2691      2694      2696      2692      2691      2694      2697
      2693      2691      2694      2695      2693      2691      2694      2696
      2693      2691      2694      2697      2694      2697      2700      2701
      2694      2697      2700      2702      2694      2697      2700      2703
      2695      2694      2697      2698      2695      2694      2697      2699
      2695      2694      2697      2700      2696      2694      2697      2698
      2696      2694      2697      2699      2696      2694      2697      2700
      2697      2700      2703      2704      2697      2700      2703      2705
      2697      2700      2703      2706      2698      2697      2700      2701
      2698      2697      2700      2702      2698      2697      2700      2703
      2699      2697      2700      2701      2699      2697      2700      2702
      2699      2697      2700      2703      2700      2703      2706      2707
      2700      2703      2706      2708      2700      2703      2706      2709
      2701      2700      2703      2704      2701      2700      2703      2705
      2701      2700      2703      2706      2702      2700      2703      2704
      2702      2700      2703      2705      2702      2700      2703      2706
      2703      2706      2709      2710      2703      2706      2709      2711
      2703      2706      2709      2712      2704      2703      2706      2707
      2704      2703      2706      2708      2704      2703      2706      2709
      2705      2703      2706      2707      2705      2703      2706      2708
      2705      2703      2706      2709      2706      2709      2712      2713
      2706      2709      2712      2714      2706      2709      2712      2715
      2707      2706      2709      2710      2707      2706      2709      2711
      2707      2706      2709      2712      2708      2706      2709      2710
      2708      2706      2709      2711      2708      2706      2709      2712
      2709      2712      2715      2716      2709      2712      2715      2717
      2709      2712      2715      2718      2710      2709      2712      2713
      2710      2709      2712      2714      2710      2709      2712      2715
      2711      2709      2712      2713      2711      2709      2712      2714
      2711      2709      2712      2715      2712      2715      2718      2719
      2712      2715      2718      2720      2712      2715      2718      2721
      2713      2712      2715      2716      2713      2712      2715      2717
      2713      2712      2715      2718      2714      2712      2715      2716
      2714      2712      2715      2717      2714      2712      2715      2718
      2715      2718      2721      2722      2715      2718      2721      2723
      2715      2718      2721      2724      2716      2715      2718      2719
      2716      2715      2718      2720      2716      2715      2718      2721
      2717      2715      2718      2719      2717      2715      2718      2720
      2717      2715      2718      2721      2718      2721      2724      2725
      2718      2721      2724      2726      2718      2721      2724      2727
      2719      2718      2721      2722      2719      2718      2721      2723
      2719      2718      2721      2724      2720      2718      2721      2722
      2720      2718      2721      2723      2720      2718      2721      2724
      2721      2724      2727      2728      2721      2724      2727      2729
      2721      2724      2727      2730      2722      2721      2724      2725
      2722      2721      2724      2726      2722      2721      2724      2727
      2723      2721      2724      2725      2723      2721      2724      2726
      2723      2721      2724      2727      2725      2724      2727      2728
      2725      2724      2727      2729      2725      2724      2727      2730
      2726      2724      2727      2728      2726      2724      2727      2729
      2726      2724      2727      2730      2731      2744      2747      2748
      2731      2744      2747      2749      2731      2744      2747      2754
      2732      2731      2736      2737      2732      2731      2736      2738
      2732      2731      2736      2739      2732      2731      2740      2741
      2732      2731      2740      2742      2732      2731      2740      2743
      2732      2731      2744      2745      2732      2731      2744      2746
      2732      2731      2744      2747      2733      2732      2731      2736
      2733      2732      2731      2740      2733      2732      2731      2744
      2734      2732      2731      2736      2734      2732      2731      2740
      2734      2732      2731      2744      2735      2732      2731      2736
      2735      2732      2731      2740      2735      2732      2731      2744
      2736      2731      2740      2741      2736      2731      2740      2742
      2736      2731      2740      2743      2736      2731      2744      2745
      2736      2731      2744      2746      2736      2731      2744      2747
      2737      2736      2731      2740      2737      2736      2731      2744
      2738      2736      2731      2740      2738      2736      2731      2744
      2739      2736      2731      2740      2739      2736      2731      2744
      2740      2731      2744      2745      2740      2731      2744      2746
      2740      2731      2744      2747      2741      2740      2731      2744
      2742      2740      2731      2744      2743      2740      2731      2744
      2744      2747      2754      2750      2745      2744      2747      2748
      2745      2744      2747      2749      2745      2744      2747      2754
      2746      2744      2747      2748      2746      2744      2747      2749
      2746      2744      2747      2754      2747      2754      2750      2751
      2747      2754      2750      2752      2747      2754      2750      2753
      2748      2747      2754      2750      2749      2747      2754      2750
      2750      2753      2755      2756      2750      2753      2755      2757
      2750      2753      2755      2758      2751      2750      2753      2755
      2752      2750      2753      2755      2753      2755      2758      2759
      2753      2755      2758      2760      2753      2755      2758      2766
      2754      2750      2753      2755      2755      2758      2760      2761
      2755      2758      2766      2767      2755      2758      2766      2768
      2755      2758      2766      2769      2756      2755      2758      2759
      2756      2755      2758      2760      2756      2755      2758      2766
      2757      2755      2758      2759      2757      2755      2758      2760
      2757      2755      2758      2766      2758      2760      2761      2762
      2758      2760      2761      2763      2758      2766      2769      2770
      2759      2758      2760      2761      2759      2758      2766      2767
      2759      2758      2766      2768      2759      2758      2766      2769
      2760      2758      2766      2767      2760      2758      2766      2768
      2760      2758      2766      2769      2760      2761      2763      2764
      2760      2761      2763      2765      2760      2761      2763      2775
      2761      2760      2758      2766      2761      2763      2775      2776
      2761      2763      2775      2777      2761      2763      2775      2778
      2762      2761      2763      2764      2762      2761      2763      2765
      2762      2761      2763      2775      2763      2775      2778      2779
      2763      2775      2778      2780      2763      2775      2778      2781
      2764      2763      2775      2776      2764      2763      2775      2777
      2764      2763      2775      2778      2765      2763      2775      2776
      2765      2763      2775      2777      2765      2763      2775      2778
      2766      2769      2770      2771      2766      2769      2770      2772
      2767      2766      2769      2770      2768      2766      2769      2770
      2769      2770      2772      2773      2769      2770      2772      2774
      2769      2770      2772      2818      2770      2772      2818      2819
      2770      2772      2818      2820      2770      2772      2818      2821
      2771      2770      2772      2773      2771      2770      2772      2774
      2771      2770      2772      2818      2772      2818      2821      2822
      2772      2818      2821      2823      2772      2818      2821      2824
      2773      2772      2818      2819      2773      2772      2818      2820
      2773      2772      2818      2821      2774      2772      2818      2819
      2774      2772      2818      2820      2774      2772      2818      2821
      2775      2778      2781      2782      2775      2778      2781      2783
      2775      2778      2781      2784      2776      2775      2778      2779
      2776      2775      2778      2780      2776      2775      2778      2781
      2777      2775      2778      2779      2777      2775      2778      2780
      2777      2775      2778      2781      2778      2781      2784      2785
      2778      2781      2784      2786      2778      2781      2784      2787
      2779      2778      2781      2782      2779      2778      2781      2783
      2779      2778      2781      2784      2780      2778      2781      2782
      2780      2778      2781      2783      2780      2778      2781      2784
      2781      2784      2787      2788      2781      2784      2787      2789
      2781      2784      2787      2790      2782      2781      2784      2785
      2782      2781      2784      2786      2782      2781      2784      2787
      2783      2781      2784      2785      2783      2781      2784      2786
      2783      2781      2784      2787      2784      2787      2790      2791
      2784      2787      2790      2792      2784      2787      2790      2793
      2785      2784      2787      2788      2785      2784      2787      2789
      2785      2784      2787      2790      2786      2784      2787      2788
      2786      2784      2787      2789      2786      2784      2787      2790
      2787      2790      2793      2794      2787      2790      2793      2795
      2787      2790      2793      2796      2788      2787      2790      2791
      2788      2787      2790      2792      2788      2787      2790      2793
      2789      2787      2790      2791      2789      2787      2790      2792
      2789      2787      2790      2793      2790      2793      2796      2797
      2790      2793      2796      2798      2790      2793      2796      2799
      2791      2790      2793      2794      2791      2790      2793      2795
      2791      2790      2793      2796      2792      2790      2793      2794
      2792      2790      2793      2795      2792      2790      2793      2796
      2793      2796      2799      2800      2793      2796      2799      2801
      2793      2796      2799      2802      2794      2793      2796      2797
      2794      2793      2796      2798      2794      2793      2796      2799
      2795      2793      2796      2797      2795      2793      2796      2798
      2795      2793      2796      2799      2796      2799      2802      2803
      2796      2799      2802      2804      2796      2799      2802      2805
      2797      2796      2799      2800      2797      2796      2799      2801
      2797      2796      2799      2802      2798      2796      2799      2800
      2798      2796      2799      2801      2798      2796      2799      2802
      2799      2802      2805      2806      2799      2802      2805      2807
      2799      2802      2805      2808      2800      2799      2802      2803
      2800      2799      2802      2804      2800      2799      2802      2805
      2801      2799      2802      2803      2801      2799      2802      2804
      2801      2799      2802      2805      2802      2805      2808      2809
      2802      2805      2808      2810      2802      2805      2808      2811
      2803      2802      2805      2806      2803      2802      2805      2807
      2803      2802      2805      2808      2804      2802      2805      2806
      2804      2802      2805      2807      2804      2802      2805      2808
      2805      2808      2811      2812      2805      2808      2811      2813
      2805      2808      2811      2814      2806      2805      2808      2809
      2806      2805      2808      2810      2806      2805      2808      2811
      2807      2805      2808      2809      2807      2805      2808      2810
      2807      2805      2808      2811      2808      2811      2814      2815
      2808      2811      2814      2816      2808      2811      2814      2817
      2809      2808      2811      2812      2809      2808      2811      2813
      2809      2808      2811      2814      2810      2808      2811      2812
      2810      2808      2811      2813      2810      2808      2811      2814
      2812      2811      2814      2815      2812      2811      2814      2816
      2812      2811      2814      2817      2813      2811      2814      2815
      2813      2811      2814      2816      2813      2811      2814      2817
      2818      2821      2824      2825      2818      2821      2824      2826
      2818      2821      2824      2827      2819      2818      2821      2822
      2819      2818      2821      2823      2819      2818      2821      2824
      2820      2818      2821      2822      2820      2818      2821      2823
      2820      2818      2821      2824      2821      2824      2827      2828
      2821      2824      2827      2829      2821      2824      2827      2830
      2822      2821      2824      2825      2822      2821      2824      2826
      2822      2821      2824      2827      2823      2821      2824      2825
      2823      2821      2824      2826      2823      2821      2824      2827
      2824      2827      2830      2831      2824      2827      2830      2832
      2824      2827      2830      2833      2825      2824      2827      2828
      2825      2824      2827      2829      2825      2824      2827      2830
      2826      2824      2827      2828      2826      2824      2827      2829
      2826      2824      2827      2830      2827      2830      2833      2834
      2827      2830      2833      2835      2827      2830      2833      2836
      2828      2827      2830      2831      2828      2827      2830      2832
      2828      2827      2830      2833      2829      2827      2830      2831
      2829      2827      2830      2832      2829      2827      2830      2833
      2830      2833      2836      2837      2830      2833      2836      2838
      2830      2833      2836      2839      2831      2830      2833      2834
      2831      2830      2833      2835      2831      2830      2833      2836
      2832      2830      2833      2834      2832      2830      2833      2835
      2832      2830      2833      2836      2833      2836      2839      2840
      2833      2836      2839      2841      2833      2836      2839      2842
      2834      2833      2836      2837      2834      2833      2836      2838
      2834      2833      2836      2839      2835      2833      2836      2837
      2835      2833      2836      2838      2835      2833      2836      2839
      2836      2839      2842      2843      2836      2839      2842      2844
      2836      2839      2842      2845      2837      2836      2839      2840
      2837      2836      2839      2841      2837      2836      2839      2842
      2838      2836      2839      2840      2838      2836      2839      2841
      2838      2836      2839      2842      2839      2842      2845      2846
      2839      2842      2845      2847      2839      2842      2845      2848
      2840      2839      2842      2843      2840      2839      2842      2844
      2840      2839      2842      2845      2841      2839      2842      2843
      2841      2839      2842      2844      2841      2839      2842      2845
      2842      2845      2848      2849      2842      2845      2848      2850
      2842      2845      2848      2851      2843      2842      2845      2846
      2843      2842      2845      2847      2843      2842      2845      2848
      2844      2842      2845      2846      2844      2842      2845      2847
      2844      2842      2845      2848      2845      2848      2851      2852
      2845      2848      2851      2853      2845      2848      2851      2854
      2846      2845      2848      2849      2846      2845      2848      2850
      2846      2845      2848      2851      2847      2845      2848      2849
      2847      2845      2848      2850      2847      2845      2848      2851
      2848      2851      2854      2855      2848      2851      2854      2856
      2848      2851      2854      2857      2849      2848      2851      2852
      2849      2848      2851      2853      2849      2848      2851      2854
      2850      2848      2851      2852      2850      2848      2851      2853
      2850      2848      2851      2854      2851      2854      2857      2858
      2851      2854      2857      2859      2851      2854      2857      2860
      2852      2851      2854      2855      2852      2851      2854      2856
      2852      2851      2854      2857      2853      2851      2854      2855
      2853      2851      2854      2856      2853      2851      2854      2857
      2855      2854      2857      2858      2855      2854      2857      2859
      2855      2854      2857      2860      2856      2854      2857      2858
      2856      2854      2857      2859      2856      2854      2857      2860
      2861      2874      2877      2878      2861      2874      2877      2879
      2861      2874      2877      2884      2862      2861      2866      2867
      2862      2861      2866      2868      2862      2861      2866      2869
      2862      2861      2870      2871      2862      2861      2870      2872
      2862      2861      2870      2873      2862      2861      2874      2875
      2862      2861      2874      2876      2862      2861      2874      2877
      2863      2862      2861      2866      2863      2862      2861      2870
      2863      2862      2861      2874      2864      2862      2861      2866
      2864      2862      2861      2870      2864      2862      2861      2874
      2865      2862      2861      2866      2865      2862      2861      2870
      2865      2862      2861      2874      2866      2861      2870      2871
      2866      2861      2870      2872      2866      2861      2870      2873
      2866      2861      2874      2875      2866      2861      2874      2876
      2866      2861      2874      2877      2867      2866      2861      2870
      2867      2866      2861      2874      2868      2866      2861      2870
      2868      2866      2861      2874      2869      2866      2861      2870
      2869      2866      2861      2874      2870      2861      2874      2875
      2870      2861      2874      2876      2870      2861      2874      2877
      2871      2870      2861      2874      2872      2870      2861      2874
      2873      2870      2861      2874      2874      2877      2884      2880
      2875      2874      2877      2878      2875      2874      2877      2879
      2875      2874      2877      2884      2876      2874      2877      2878
      2876      2874      2877      2879      2876      2874      2877      2884
      2877      2884      2880      2881      2877      2884      2880      2882
      2877      2884      2880      2883      2878      2877      2884      2880
      2879      2877      2884      2880      2880      2883      2885      2886
      2880      2883      2885      2887      2880      2883      2885      2888
      2881      2880      2883      2885      2882      2880      2883      2885
      2883      2885      2888      2889      2883      2885      2888      2890
      2883      2885      2888      2896      2884      2880      2883      2885
      2885      2888      2890      2891      2885      2888      2896      2897
      2885      2888      2896      2898      2885      2888      2896      2899
      2886      2885      2888      2889      2886      2885      2888      2890
      2886      2885      2888      2896      2887      2885      2888      2889
      2887      2885      2888      2890      2887      2885      2888      2896
      2888      2890      2891      2892      2888      2890      2891      2893
      2888      2896      2899      2900      2889      2888      2890      2891
      2889      2888      2896      2897      2889      2888      2896      2898
      2889      2888      2896      2899      2890      2888      2896      2897
      2890      2888      2896      2898      2890      2888      2896      2899
      2890      2891      2893      2894      2890      2891      2893      2895
      2890      2891      2893      2905      2891      2890      2888      2896
      2891      2893      2905      2906      2891      2893      2905      2907
      2891      2893      2905      2908      2892      2891      2893      2894
      2892      2891      2893      2895      2892      2891      2893      2905
      2893      2905      2908      2909      2893      2905      2908      2910
      2893      2905      2908      2911      2894      2893      2905      2906
      2894      2893      2905      2907      2894      2893      2905      2908
      2895      2893      2905      2906      2895      2893      2905      2907
      2895      2893      2905      2908      2896      2899      2900      2901
      2896      2899      2900      2902      2897      2896      2899      2900
      2898      2896      2899      2900      2899      2900      2902      2903
      2899      2900      2902      2904      2899      2900      2902      2948
      2900      2902      2948      2949      2900      2902      2948      2950
      2900      2902      2948      2951      2901      2900      2902      2903
      2901      2900      2902      2904      2901      2900      2902      2948
      2902      2948      2951      2952      2902      2948      2951      2953
      2902      2948      2951      2954      2903      2902      2948      2949
      2903      2902      2948      2950      2903      2902      2948      2951
      2904      2902      2948      2949      2904      2902      2948      2950
      2904      2902      2948      2951      2905      2908      2911      2912
      2905      2908      2911      2913      2905      2908      2911      2914
      2906      2905      2908      2909      2906      2905      2908      2910
      2906      2905      2908      2911      2907      2905      2908      2909
      2907      2905      2908      2910      2907      2905      2908      2911
      2908      2911      2914      2915      2908      2911      2914      2916
      2908      2911      2914      2917      2909      2908      2911      2912
      2909      2908      2911      2913      2909      2908      2911      2914
      2910      2908      2911      2912      2910      2908      2911      2913
      2910      2908      2911      2914      2911      2914      2917      2918
      2911      2914      2917      2919      2911      2914      2917      2920
      2912      2911      2914      2915      2912      2911      2914      2916
      2912      2911      2914      2917      2913      2911      2914      2915
      2913      2911      2914      2916      2913      2911      2914      2917
      2914      2917      2920      2921      2914      2917      2920      2922
      2914      2917      2920      2923      2915      2914      2917      2918
      2915      2914      2917      2919      2915      2914      2917      2920
      2916      2914      2917      2918      2916      2914      2917      2919
      2916      2914      2917      2920      2917      2920      2923      2924
      2917      2920      2923      2925      2917      2920      2923      2926
      2918      2917      2920      2921      2918      2917      2920      2922
      2918      2917      2920      2923      2919      2917      2920      2921
      2919      2917      2920      2922      2919      2917      2920      2923
      2920      2923      2926      2927      2920      2923      2926      2928
      2920      2923      2926      2929      2921      2920      2923      2924
      2921      2920      2923      2925      2921      2920      2923      2926
      2922      2920      2923      2924      2922      2920      2923      2925
      2922      2920      2923      2926      2923      2926      2929      2930
      2923      2926      2929      2931      2923      2926      2929      2932
      2924      2923      2926      2927      2924      2923      2926      2928
      2924      2923      2926      2929      2925      2923      2926      2927
      2925      2923      2926      2928      2925      2923      2926      2929
      2926      2929      2932      2933      2926      2929      2932      2934
      2926      2929      2932      2935      2927      2926      2929      2930
      2927      2926      2929      2931      2927      2926      2929      2932
      2928      2926      2929      2930      2928      2926      2929      2931
      2928      2926      2929      2932      2929      2932      2935      2936
      2929      2932      2935      2937      2929      2932      2935      2938
      2930      2929      2932      2933      2930      2929      2932      2934
      2930      2929      2932      2935      2931      2929      2932      2933
      2931      2929      2932      2934      2931      2929      2932      2935
      2932      2935      2938      2939      2932      2935      2938      2940
      2932      2935      2938      2941      2933      2932      2935      2936
      2933      2932      2935      2937      2933      2932      2935      2938
      2934      2932      2935      2936      2934      2932      2935      2937
      2934      2932      2935      2938      2935      2938      2941      2942
      2935      2938      2941      2943      2935      2938      2941      2944
      2936      2935      2938      2939      2936      2935      2938      2940
      2936      2935      2938      2941      2937      2935      2938      2939
      2937      2935      2938      2940      2937      2935      2938      2941
      2938      2941      2944      2945      2938      2941      2944      2946
      2938      2941      2944      2947      2939      2938      2941      2942
      2939      2938      2941      2943      2939      2938      2941      2944
      2940      2938      2941      2942      2940      2938      2941      2943
      2940      2938      2941      2944      2942      2941      2944      2945
      2942      2941      2944      2946      2942      2941      2944      2947
      2943      2941      2944      2945      2943      2941      2944      2946
      2943      2941      2944      2947      2948      2951      2954      2955
      2948      2951      2954      2956      2948      2951      2954      2957
      2949      2948      2951      2952      2949      2948      2951      2953
      2949      2948      2951      2954      2950      2948      2951      2952
      2950      2948      2951      2953      2950      2948      2951      2954
      2951      2954      2957      2958      2951      2954      2957      2959
      2951      2954      2957      2960      2952      2951      2954      2955
      2952      2951      2954      2956      2952      2951      2954      2957
      2953      2951      2954      2955      2953      2951      2954      2956
      2953      2951      2954      2957      2954      2957      2960      2961
      2954      2957      2960      2962      2954      2957      2960      2963
      2955      2954      2957      2958      2955      2954      2957      2959
      2955      2954      2957      2960      2956      2954      2957      2958
      2956      2954      2957      2959      2956      2954      2957      2960
      2957      2960      2963      2964      2957      2960      2963      2965
      2957      2960      2963      2966      2958      2957      2960      2961
      2958      2957      2960      2962      2958      2957      2960      2963
      2959      2957      2960      2961      2959      2957      2960      2962
      2959      2957      2960      2963      2960      2963      2966      2967
      2960      2963      2966      2968      2960      2963      2966      2969
      2961      2960      2963      2964      2961      2960      2963      2965
      2961      2960      2963      2966      2962      2960      2963      2964
      2962      2960      2963      2965      2962      2960      2963      2966
      2963      2966      2969      2970      2963      2966      2969      2971
      2963      2966      2969      2972      2964      2963      2966      2967
      2964      2963      2966      2968      2964      2963      2966      2969
      2965      2963      2966      2967      2965      2963      2966      2968
      2965      2963      2966      2969      2966      2969      2972      2973
      2966      2969      2972      2974      2966      2969      2972      2975
      2967      2966      2969      2970      2967      2966      2969      2971
      2967      2966      2969      2972      2968      2966      2969      2970
      2968      2966      2969      2971      2968      2966      2969      2972
      2969      2972      2975      2976      2969      2972      2975      2977
      2969      2972      2975      2978      2970      2969      2972      2973
      2970      2969      2972      2974      2970      2969      2972      2975
      2971      2969      2972      2973      2971      2969      2972      2974
      2971      2969      2972      2975      2972      2975      2978      2979
      2972      2975      2978      2980      2972      2975      2978      2981
      2973      2972      2975      2976      2973      2972      2975      2977
      2973      2972      2975      2978      2974      2972      2975      2976
      2974      2972      2975      2977      2974      2972      2975      2978
      2975      2978      2981      2982      2975      2978      2981      2983
      2975      2978      2981      2984      2976      2975      2978      2979
      2976      2975      2978      2980      2976      2975      2978      2981
      2977      2975      2978      2979      2977      2975      2978      2980
      2977      2975      2978      2981      2978      2981      2984      2985
      2978      2981      2984      2986      2978      2981      2984      2987
      2979      2978      2981      2982      2979      2978      2981      2983
      2979      2978      2981      2984      2980      2978      2981      2982
      2980      2978      2981      2983      2980      2978      2981      2984
      2981      2984      2987      2988      2981      2984      2987      2989
      2981      2984      2987      2990      2982      2981      2984      2985
      2982      2981      2984      2986      2982      2981      2984      2987
      2983      2981      2984      2985      2983      2981      2984      2986
      2983      2981      2984      2987      2985      2984      2987      2988
      2985      2984      2987      2989      2985      2984      2987      2990
      2986      2984      2987      2988      2986      2984      2987      2989
      2986      2984      2987      2990      2991      3004      3007      3008
      2991      3004      3007      3009      2991      3004      3007      3014
      2992      2991      2996      2997      2992      2991      2996      2998
      2992      2991      2996      2999      2992      2991      3000      3001
      2992      2991      3000      3002      2992      2991      3000      3003
      2992      2991      3004      3005      2992      2991      3004      3006
      2992      2991      3004      3007      2993      2992      2991      2996
      2993      2992      2991      3000      2993      2992      2991      3004
      2994      2992      2991      2996      2994      2992      2991      3000
      2994      2992      2991      3004      2995      2992      2991      2996
      2995      2992      2991      3000      2995      2992      2991      3004
      2996      2991      3000      3001      2996      2991      3000      3002
      2996      2991      3000      3003      2996      2991      3004      3005
      2996      2991      3004      3006      2996      2991      3004      3007
      2997      2996      2991      3000      2997      2996      2991      3004
      2998      2996      2991      3000      2998      2996      2991      3004
      2999      2996      2991      3000      2999      2996      2991      3004
      3000      2991      3004      3005      3000      2991      3004      3006
      3000      2991      3004      3007      3001      3000      2991      3004
      3002      3000      2991      3004      3003      3000      2991      3004
      3004      3007      3014      3010      3005      3004      3007      3008
      3005      3004      3007      3009      3005      3004      3007      3014
      3006      3004      3007      3008      3006      3004      3007      3009
      3006      3004      3007      3014      3007      3014      3010      3011
      3007      3014      3010      3012      3007      3014      3010      3013
      3008      3007      3014      3010      3009      3007      3014      3010
      3010      3013      3015      3016      3010      3013      3015      3017
      3010      3013      3015      3018      3011      3010      3013      3015
      3012      3010      3013      3015      3013      3015      3018      3019
      3013      3015      3018      3020      3013      3015      3018      3026
      3014      3010      3013      3015      3015      3018      3020      3021
      3015      3018      3026      3027      3015      3018      3026      3028
      3015      3018      3026      3029      3016      3015      3018      3019
      3016      3015      3018      3020      3016      3015      3018      3026
      3017      3015      3018      3019      3017      3015      3018      3020
      3017      3015      3018      3026      3018      3020      3021      3022
      3018      3020      3021      3023      3018      3026      3029      3030
      3019      3018      3020      3021      3019      3018      3026      3027
      3019      3018      3026      3028      3019      3018      3026      3029
      3020      3018      3026      3027      3020      3018      3026      3028
      3020      3018      3026      3029      3020      3021      3023      3024
      3020      3021      3023      3025      3020      3021      3023      3035
      3021      3020      3018      3026      3021      3023      3035      3036
      3021      3023      3035      3037      3021      3023      3035      3038
      3022      3021      3023      3024      3022      3021      3023      3025
      3022      3021      3023      3035      3023      3035      3038      3039
      3023      3035      3038      3040      3023      3035      3038      3041
      3024      3023      3035      3036      3024      3023      3035      3037
      3024      3023      3035      3038      3025      3023      3035      3036
      3025      3023      3035      3037      3025      3023      3035      3038
      3026      3029      3030      3031      3026      3029      3030      3032
      3027      3026      3029      3030      3028      3026      3029      3030
      3029      3030      3032      3033      3029      3030      3032      3034
      3029      3030      3032      3078      3030      3032      3078      3079
      3030      3032      3078      3080      3030      3032      3078      3081
      3031      3030      3032      3033      3031      3030      3032      3034
      3031      3030      3032      3078      3032      3078      3081      3082
      3032      3078      3081      3083      3032      3078      3081      3084
      3033      3032      3078      3079      3033      3032      3078      3080
      3033      3032      3078      3081      3034      3032      3078      3079
      3034      3032      3078      3080      3034      3032      3078      3081
      3035      3038      3041      3042      3035      3038      3041      3043
      3035      3038      3041      3044      3036      3035      3038      3039
      3036      3035      3038      3040      3036      3035      3038      3041
      3037      3035      3038      3039      3037      3035      3038      3040
      3037      3035      3038      3041      3038      3041      3044      3045
      3038      3041      3044      3046      3038      3041      3044      3047
      3039      3038      3041      3042      3039      3038      3041      3043
      3039      3038      3041      3044      3040      3038      3041      3042
      3040      3038      3041      3043      3040      3038      3041      3044
      3041      3044      3047      3048      3041      3044      3047      3049
      3041      3044      3047      3050      3042      3041      3044      3045
      3042      3041      3044      3046      3042      3041      3044      3047
      3043      3041      3044      3045      3043      3041      3044      3046
      3043      3041      3044      3047      3044      3047      3050      3051
      3044      3047      3050      3052      3044      3047      3050      3053
      3045      3044      3047      3048      3045      3044      3047      3049
      3045      3044      3047      3050      3046      3044      3047      3048
      3046      3044      3047      3049      3046      3044      3047      3050
      3047      3050      3053      3054      3047      3050      3053      3055
      3047      3050      3053      3056      3048      3047      3050      3051
      3048      3047      3050      3052      3048      3047      3050      3053
      3049      3047      3050      3051      3049      3047      3050      3052
      3049      3047      3050      3053      3050      3053      3056      3057
      3050      3053      3056      3058      3050      3053      3056      3059
      3051      3050      3053      3054      3051      3050      3053      3055
      3051      3050      3053      3056      3052      3050      3053      3054
      3052      3050      3053      3055      3052      3050      3053      3056
      3053      3056      3059      3060      3053      3056      3059      3061
      3053      3056      3059      3062      3054      3053      3056      3057
      3054      3053      3056      3058      3054      3053      3056      3059
      3055      3053      3056      3057      3055      3053      3056      3058
      3055      3053      3056      3059      3056      3059      3062      3063
      3056      3059      3062      3064      3056      3059      3062      3065
      3057      3056      3059      3060      3057      3056      3059      3061
      3057      3056      3059      3062      3058      3056      3059      3060
      3058      3056      3059      3061      3058      3056      3059      3062
      3059      3062      3065      3066      3059      3062      3065      3067
      3059      3062      3065      3068      3060      3059      3062      3063
      3060      3059      3062      3064      3060      3059      3062      3065
      3061      3059      3062      3063      3061      3059      3062      3064
      3061      3059      3062      3065      3062      3065      3068      3069
      3062      3065      3068      3070      3062      3065      3068      3071
      3063      3062      3065      3066      3063      3062      3065      3067
      3063      3062      3065      3068      3064      3062      3065      3066
      3064      3062      3065      3067      3064      3062      3065      3068
      3065      3068      3071      3072      3065      3068      3071      3073
      3065      3068      3071      3074      3066      3065      3068      3069
      3066      3065      3068      3070      3066      3065      3068      3071
      3067      3065      3068      3069      3067      3065      3068      3070
      3067      3065      3068      3071      3068      3071      3074      3075
      3068      3071      3074      3076      3068      3071      3074      3077
      3069      3068      3071      3072      3069      3068      3071      3073
      3069      3068      3071      3074      3070      3068      3071      3072
      3070      3068      3071      3073      3070      3068      3071      3074
      3072      3071      3074      3075      3072      3071      3074      3076
      3072      3071      3074      3077      3073      3071      3074      3075
      3073      3071      3074      3076      3073      3071      3074      3077
      3078      3081      3084      3085      3078      3081      3084      3086
      3078      3081      3084      3087      3079      3078      3081      3082
      3079      3078      3081      3083      3079      3078      3081      3084
      3080      3078      3081      3082      3080      3078      3081      3083
      3080      3078      3081      3084      3081      3084      3087      3088
      3081      3084      3087      3089      3081      3084      3087      3090
      3082      3081      3084      3085      3082      3081      3084      3086
      3082      3081      3084      3087      3083      3081      3084      3085
      3083      3081      3084      3086      3083      3081      3084      3087
      3084      3087      3090      3091      3084      3087      3090      3092
      3084      3087      3090      3093      3085      3084      3087      3088
      3085      3084      3087      3089      3085      3084      3087      3090
      3086      3084      3087      3088      3086      3084      3087      3089
      3086      3084      3087      3090      3087      3090      3093      3094
      3087      3090      3093      3095      3087      3090      3093      3096
      3088      3087      3090      3091      3088      3087      3090      3092
      3088      3087      3090      3093      3089      3087      3090      3091
      3089      3087      3090      3092      3089      3087      3090      3093
      3090      3093      3096      3097      3090      3093      3096      3098
      3090      3093      3096      3099      3091      3090      3093      3094
      3091      3090      3093      3095      3091      3090      3093      3096
      3092      3090      3093      3094      3092      3090      3093      3095
      3092      3090      3093      3096      3093      3096      3099      3100
      3093      3096      3099      3101      3093      3096      3099      3102
      3094      3093      3096      3097      3094      3093      3096      3098
      3094      3093      3096      3099      3095      3093      3096      3097
      3095      3093      3096      3098      3095      3093      3096      3099
      3096      3099      3102      3103      3096      3099      3102      3104
      3096      3099      3102      3105      3097      3096      3099      3100
      3097      3096      3099      3101      3097      3096      3099      3102
      3098      3096      3099      3100      3098      3096      3099      3101
      3098      3096      3099      3102      3099      3102      3105      3106
      3099      3102      3105      3107      3099      3102      3105      3108
      3100      3099      3102      3103      3100      3099      3102      3104
      3100      3099      3102      3105      3101      3099      3102      3103
      3101      3099      3102      3104      3101      3099      3102      3105
      3102      3105      3108      3109      3102      3105      3108      3110
      3102      3105      3108      3111      3103      3102      3105      3106
      3103      3102      3105      3107      3103      3102      3105      3108
      3104      3102      3105      3106      3104      3102      3105      3107
      3104      3102      3105      3108      3105      3108      3111      3112
      3105      3108      3111      3113      3105      3108      3111      3114
      3106      3105      3108      3109      3106      3105      3108      3110
      3106      3105      3108      3111      3107      3105      3108      3109
      3107      3105      3108      3110      3107      3105      3108      3111
      3108      3111      3114      3115      3108      3111      3114      3116
      3108      3111      3114      3117      3109      3108      3111      3112
      3109      3108      3111      3113      3109      3108      3111      3114
      3110      3108      3111      3112      3110      3108      3111      3113
      3110      3108      3111      3114      3111      3114      3117      3118
      3111      3114      3117      3119      3111      3114      3117      3120
      3112      3111      3114      3115      3112      3111      3114      3116
      3112      3111      3114      3117      3113      3111      3114      3115
      3113      3111      3114      3116      3113      3111      3114      3117
      3115      3114      3117      3118      3115      3114      3117      3119
      3115      3114      3117      3120      3116      3114      3117      3118
      3116      3114      3117      3119      3116      3114      3117      3120
      3121      3134      3137      3138      3121      3134      3137      3139
      3121      3134      3137      3144      3122      3121      3126      3127
      3122      3121      3126      3128      3122      3121      3126      3129
      3122      3121      3130      3131      3122      3121      3130      3132
      3122      3121      3130      3133      3122      3121      3134      3135
      3122      3121      3134      3136      3122      3121      3134      3137
      3123      3122      3121      3126      3123      3122      3121      3130
      3123      3122      3121      3134      3124      3122      3121      3126
      3124      3122      3121      3130      3124      3122      3121      3134
      3125      3122      3121      3126      3125      3122      3121      3130
      3125      3122      3121      3134      3126      3121      3130      3131
      3126      3121      3130      3132      3126      3121      3130      3133
      3126      3121      3134      3135      3126      3121      3134      3136
      3126      3121      3134      3137      3127      3126      3121      3130
      3127      3126      3121      3134      3128      3126      3121      3130
      3128      3126      3121      3134      3129      3126      3121      3130
      3129      3126      3121      3134      3130      3121      3134      3135
      3130      3121      3134      3136      3130      3121      3134      3137
      3131      3130      3121      3134      3132      3130      3121      3134
      3133      3130      3121      3134      3134      3137      3144      3140
      3135      3134      3137      3138      3135      3134      3137      3139
      3135      3134      3137      3144      3136      3134      3137      3138
      3136      3134      3137      3139      3136      3134      3137      3144
      3137      3144      3140      3141      3137      3144      3140      3142
      3137      3144      3140      3143      3138      3137      3144      3140
      3139      3137      3144      3140      3140      3143      3145      3146
      3140      3143      3145      3147      3140      3143      3145      3148
      3141      3140      3143      3145      3142      3140      3143      3145
      3143      3145      3148      3149      3143      3145      3148      3150
      3143      3145      3148      3156      3144      3140      3143      3145
      3145      3148      3150      3151      3145      3148      3156      3157
      3145      3148      3156      3158      3145      3148      3156      3159
      3146      3145      3148      3149      3146      3145      3148      3150
      3146      3145      3148      3156      3147      3145      3148      3149
      3147      3145      3148      3150      3147      3145      3148      3156
      3148      3150      3151      3152      3148      3150      3151      3153
      3148      3156      3159      3160      3149      3148      3150      3151
      3149      3148      3156      3157      3149      3148      3156      3158
      3149      3148      3156      3159      3150      3148      3156      3157
      3150      3148      3156      3158      3150      3148      3156      3159
      3150      3151      3153      3154      3150      3151      3153      3155
      3150      3151      3153      3165      3151      3150      3148      3156
      3151      3153      3165      3166      3151      3153      3165      3167
      3151      3153      3165      3168      3152      3151      3153      3154
      3152      3151      3153      3155      3152      3151      3153      3165
      3153      3165      3168      3169      3153      3165      3168      3170
      3153      3165      3168      3171      3154      3153      3165      3166
      3154      3153      3165      3167      3154      3153      3165      3168
      3155      3153      3165      3166      3155      3153      3165      3167
      3155      3153      3165      3168      3156      3159      3160      3161
      3156      3159      3160      3162      3157      3156      3159      3160
      3158      3156      3159      3160      3159      3160      3162      3163
      3159      3160      3162      3164      3159      3160      3162      3208
      3160      3162      3208      3209      3160      3162      3208      3210
      3160      3162      3208      3211      3161      3160      3162      3163
      3161      3160      3162      3164      3161      3160      3162      3208
      3162      3208      3211      3212      3162      3208      3211      3213
      3162      3208      3211      3214      3163      3162      3208      3209
      3163      3162      3208      3210      3163      3162      3208      3211
      3164      3162      3208      3209      3164      3162      3208      3210
      3164      3162      3208      3211      3165      3168      3171      3172
      3165      3168      3171      3173      3165      3168      3171      3174
      3166      3165      3168      3169      3166      3165      3168      3170
      3166      3165      3168      3171      3167      3165      3168      3169
      3167      3165      3168      3170      3167      3165      3168      3171
      3168      3171      3174      3175      3168      3171      3174      3176
      3168      3171      3174      3177      3169      3168      3171      3172
      3169      3168      3171      3173      3169      3168      3171      3174
      3170      3168      3171      3172      3170      3168      3171      3173
      3170      3168      3171      3174      3171      3174      3177      3178
      3171      3174      3177      3179      3171      3174      3177      3180
      3172      3171      3174      3175      3172      3171      3174      3176
      3172      3171      3174      3177      3173      3171      3174      3175
      3173      3171      3174      3176      3173      3171      3174      3177
      3174      3177      3180      3181      3174      3177      3180      3182
      3174      3177      3180      3183      3175      3174      3177      3178
      3175      3174      3177      3179      3175      3174      3177      3180
      3176      3174      3177      3178      3176      3174      3177      3179
      3176      3174      3177      3180      3177      3180      3183      3184
      3177      3180      3183      3185      3177      3180      3183      3186
      3178      3177      3180      3181      3178      3177      3180      3182
      3178      3177      3180      3183      3179      3177      3180      3181
      3179      3177      3180      3182      3179      3177      3180      3183
      3180      3183      3186      3187      3180      3183      3186      3188
      3180      3183      3186      3189      3181      3180      3183      3184
      3181      3180      3183      3185      3181      3180      3183      3186
      3182      3180      3183      3184      3182      3180      3183      3185
      3182      3180      3183      3186      3183      3186      3189      3190
      3183      3186      3189      3191      3183      3186      3189      3192
      3184      3183      3186      3187      3184      3183      3186      3188
      3184      3183      3186      3189      3185      3183      3186      3187
      3185      3183      3186      3188      3185      3183      3186      3189
      3186      3189      3192      3193      3186      3189      3192      3194
      3186      3189      3192      3195      3187      3186      3189      3190
      3187      3186      3189      3191      3187      3186      3189      3192
      3188      3186      3189      3190      3188      3186      3189      3191
      3188      3186      3189      3192      3189      3192      3195      3196
      3189      3192      3195      3197      3189      3192      3195      3198
      3190      3189      3192      3193      3190      3189      3192      3194
      3190      3189      3192      3195      3191      3189      3192      3193
      3191      3189      3192      3194      3191      3189      3192      3195
      3192      3195      3198      3199      3192      3195      3198      3200
      3192      3195      3198      3201      3193      3192      3195      3196
      3193      3192      3195      3197      3193      3192      3195      3198
      3194      3192      3195      3196      3194      3192      3195      3197
      3194      3192      3195      3198      3195      3198      3201      3202
      3195      3198      3201      3203      3195      3198      3201      3204
      3196      3195      3198      3199      3196      3195      3198      3200
      3196      3195      3198      3201      3197      3195      3198      3199
      3197      3195      3198      3200      3197      3195      3198      3201
      3198      3201      3204      3205      3198      3201      3204      3206
      3198      3201      3204      3207      3199      3198      3201      3202
      3199      3198      3201      3203      3199      3198      3201      3204
      3200      3198      3201      3202      3200      3198      3201      3203
      3200      3198      3201      3204      3202      3201      3204      3205
      3202      3201      3204      3206      3202      3201      3204      3207
      3203      3201      3204      3205      3203      3201      3204      3206
      3203      3201      3204      3207      3208      3211      3214      3215
      3208      3211      3214      3216      3208      3211      3214      3217
      3209      3208      3211      3212      3209      3208      3211      3213
      3209      3208      3211      3214      3210      3208      3211      3212
      3210      3208      3211      3213      3210      3208      3211      3214
      3211      3214      3217      3218      3211      3214      3217      3219
      3211      3214      3217      3220      3212      3211      3214      3215
      3212      3211      3214      3216      3212      3211      3214      3217
      3213      3211      3214      3215      3213      3211      3214      3216
      3213      3211      3214      3217      3214      3217      3220      3221
      3214      3217      3220      3222      3214      3217      3220      3223
      3215      3214      3217      3218      3215      3214      3217      3219
      3215      3214      3217      3220      3216      3214      3217      3218
      3216      3214      3217      3219      3216      3214      3217      3220
      3217      3220      3223      3224      3217      3220      3223      3225
      3217      3220      3223      3226      3218      3217      3220      3221
      3218      3217      3220      3222      3218      3217      3220      3223
      3219      3217      3220      3221      3219      3217      3220      3222
      3219      3217      3220      3223      3220      3223      3226      3227
      3220      3223      3226      3228      3220      3223      3226      3229
      3221      3220      3223      3224      3221      3220      3223      3225
      3221      3220      3223      3226      3222      3220      3223      3224
      3222      3220      3223      3225      3222      3220      3223      3226
      3223      3226      3229      3230      3223      3226      3229      3231
      3223      3226      3229      3232      3224      3223      3226      3227
      3224      3223      3226      3228      3224      3223      3226      3229
      3225      3223      3226      3227      3225      3223      3226      3228
      3225      3223      3226      3229      3226      3229      3232      3233
      3226      3229      3232      3234      3226      3229      3232      3235
      3227      3226      3229      3230      3227      3226      3229      3231
      3227      3226      3229      3232      3228      3226      3229      3230
      3228      3226      3229      3231      3228      3226      3229      3232
      3229      3232      3235      3236      3229      3232      3235      3237
      3229      3232      3235      3238      3230      3229      3232      3233
      3230      3229      3232      3234      3230      3229      3232      3235
      3231      3229      3232      3233      3231      3229      3232      3234
      3231      3229      3232      3235      3232      3235      3238      3239
      3232      3235      3238      3240      3232      3235      3238      3241
      3233      3232      3235      3236      3233      3232      3235      3237
      3233      3232      3235      3238      3234      3232      3235      3236
      3234      3232      3235      3237      3234      3232      3235      3238
      3235      3238      3241      3242      3235      3238      3241      3243
      3235      3238      3241      3244      3236      3235      3238      3239
      3236      3235      3238      3240      3236      3235      3238      3241
      3237      3235      3238      3239      3237      3235      3238      3240
      3237      3235      3238      3241      3238      3241      3244      3245
      3238      3241      3244      3246      3238      3241      3244      3247
      3239      3238      3241      3242      3239      3238      3241      3243
      3239      3238      3241      3244      3240      3238      3241      3242
      3240      3238      3241      3243      3240      3238      3241      3244
      3241      3244      3247      3248      3241      3244      3247      3249
      3241      3244      3247      3250      3242      3241      3244      3245
      3242      3241      3244      3246      3242      3241      3244      3247
      3243      3241      3244      3245      3243      3241      3244      3246
      3243      3241      3244      3247      3245      3244      3247      3248
      3245      3244      3247      3249      3245      3244      3247      3250
      3246      3244      3247      3248      3246      3244      3247      3249
      3246      3244      3247      3250      3251      3264      3267      3268
      3251      3264      3267      3269      3251      3264      3267      3274
      3252      3251      3256      3257      3252      3251      3256      3258
      3252      3251      3256      3259      3252      3251      3260      3261
      3252      3251      3260      3262      3252      3251      3260      3263
      3252      3251      3264      3265      3252      3251      3264      3266
      3252      3251      3264      3267      3253      3252      3251      3256
      3253      3252      3251      3260      3253      3252      3251      3264
      3254      3252      3251      3256      3254      3252      3251      3260
      3254      3252      3251      3264      3255      3252      3251      3256
      3255      3252      3251      3260      3255      3252      3251      3264
      3256      3251      3260      3261      3256      3251      3260      3262
      3256      3251      3260      3263      3256      3251      3264      3265
      3256      3251      3264      3266      3256      3251      3264      3267
      3257      3256      3251      3260      3257      3256      3251      3264
      3258      3256      3251      3260      3258      3256      3251      3264
      3259      3256      3251      3260      3259      3256      3251      3264
      3260      3251      3264      3265      3260      3251      3264      3266
      3260      3251      3264      3267      3261      3260      3251      3264
      3262      3260      3251      3264      3263      3260      3251      3264
      3264      3267      3274      3270      3265      3264      3267      3268
      3265      3264      3267      3269      3265      3264      3267      3274
      3266      3264      3267      3268      3266      3264      3267      3269
      3266      3264      3267      3274      3267      3274      3270      3271
      3267      3274      3270      3272      3267      3274      3270      3273
      3268      3267      3274      3270      3269      3267      3274      3270
      3270      3273      3275      3276      3270      3273      3275      3277
      3270      3273      3275      3278      3271      3270      3273      3275
      3272      3270      3273      3275      3273      3275      3278      3279
      3273      3275      3278      3280      3273      3275      3278      3286
      3274      3270      3273      3275      3275      3278      3280      3281
      3275      3278      3286      3287      3275      3278      3286      3288
      3275      3278      3286      3289      3276      3275      3278      3279
      3276      3275      3278      3280      3276      3275      3278      3286
      3277      3275      3278      3279      3277      3275      3278      3280
      3277      3275      3278      3286      3278      3280      3281      3282
      3278      3280      3281      3283      3278      3286      3289      3290
      3279      3278      3280      3281      3279      3278      3286      3287
      3279      3278      3286      3288      3279      3278      3286      3289
      3280      3278      3286      3287      3280      3278      3286      3288
      3280      3278      3286      3289      3280      3281      3283      3284
      3280      3281      3283      3285      3280      3281      3283      3295
      3281      3280      3278      3286      3281      3283      3295      3296
      3281      3283      3295      3297      3281      3283      3295      3298
      3282      3281      3283      3284      3282      3281      3283      3285
      3282      3281      3283      3295      3283      3295      3298      3299
      3283      3295      3298      3300      3283      3295      3298      3301
      3284      3283      3295      3296      3284      3283      3295      3297
      3284      3283      3295      3298      3285      3283      3295      3296
      3285      3283      3295      3297      3285      3283      3295      3298
      3286      3289      3290      3291      3286      3289      3290      3292
      3287      3286      3289      3290      3288      3286      3289      3290
      3289      3290      3292      3293      3289      3290      3292      3294
      3289      3290      3292      3338      3290      3292      3338      3339
      3290      3292      3338      3340      3290      3292      3338      3341
      3291      3290      3292      3293      3291      3290      3292      3294
      3291      3290      3292      3338      3292      3338      3341      3342
      3292      3338      3341      3343      3292      3338      3341      3344
      3293      3292      3338      3339      3293      3292      3338      3340
      3293      3292      3338      3341      3294      3292      3338      3339
      3294      3292      3338      3340      3294      3292      3338      3341
      3295      3298      3301      3302      3295      3298      3301      3303
      3295      3298      3301      3304      3296      3295      3298      3299
      3296      3295      3298      3300      3296      3295      3298      3301
      3297      3295      3298      3299      3297      3295      3298      3300
      3297      3295      3298      3301      3298      3301      3304      3305
      3298      3301      3304      3306      3298      3301      3304      3307
      3299      3298      3301      3302      3299      3298      3301      3303
      3299      3298      3301      3304      3300      3298      3301      3302
      3300      3298      3301      3303      3300      3298      3301      3304
      3301      3304      3307      3308      3301      3304      3307      3309
      3301      3304      3307      3310      3302      3301      3304      3305
      3302      3301      3304      3306      3302      3301      3304      3307
      3303      3301      3304      3305      3303      3301      3304      3306
      3303      3301      3304      3307      3304      3307      3310      3311
      3304      3307      3310      3312      3304      3307      3310      3313
      3305      3304      3307      3308      3305      3304      3307      3309
      3305      3304      3307      3310      3306      3304      3307      3308
      3306      3304      3307      3309      3306      3304      3307      3310
      3307      3310      3313      3314      3307      3310      3313      3315
      3307      3310      3313      3316      3308      3307      3310      3311
      3308      3307      3310      3312      3308      3307      3310      3313
      3309      3307      3310      3311      3309      3307      3310      3312
      3309      3307      3310      3313      3310      3313      3316      3317
      3310      3313      3316      3318      3310      3313      3316      3319
      3311      3310      3313      3314      3311      3310      3313      3315
      3311      3310      3313      3316      3312      3310      3313      3314
      3312      3310      3313      3315      3312      3310      3313      3316
      3313      3316      3319      3320      3313      3316      3319      3321
      3313      3316      3319      3322      3314      3313      3316      3317
      3314      3313      3316      3318      3314      3313      3316      3319
      3315      3313      3316      3317      3315      3313      3316      3318
      3315      3313      3316      3319      3316      3319      3322      3323
      3316      3319      3322      3324      3316      3319      3322      3325
      3317      3316      3319      3320      3317      3316      3319      3321
      3317      3316      3319      3322      3318      3316      3319      3320
      3318      3316      3319      3321      3318      3316      3319      3322
      3319      3322      3325      3326      3319      3322      3325      3327
      3319      3322      3325      3328      3320      3319      3322      3323
      3320      3319      3322      3324      3320      3319      3322      3325
      3321      3319      3322      3323      3321      3319      3322      3324
      3321      3319      3322      3325      3322      3325      3328      3329
      3322      3325      3328      3330      3322      3325      3328      3331
      3323      3322      3325      3326      3323      3322      3325      3327
      3323      3322      3325      3328      3324      3322      3325      3326
      3324      3322      3325      3327      3324      3322      3325      3328
      3325      3328      3331      3332      3325      3328      3331      3333
      3325      3328      3331      3334      3326      3325      3328      3329
      3326      3325      3328      3330      3326      3325      3328      3331
      3327      3325      3328      3329      3327      3325      3328      3330
      3327      3325      3328      3331      3328      3331      3334      3335
      3328      3331      3334      3336      3328      3331      3334      3337
      3329      3328      3331      3332      3329      3328      3331      3333
      3329      3328      3331      3334      3330      3328      3331      3332
      3330      3328      3331      3333      3330      3328      3331      3334
      3332      3331      3334      3335      3332      3331      3334      3336
      3332      3331      3334      3337      3333      3331      3334      3335
      3333      3331      3334      3336      3333      3331      3334      3337
      3338      3341      3344      3345      3338      3341      3344      3346
      3338      3341      3344      3347      3339      3338      3341      3342
      3339      3338      3341      3343      3339      3338      3341      3344
      3340      3338      3341      3342      3340      3338      3341      3343
      3340      3338      3341      3344      3341      3344      3347      3348
      3341      3344      3347      3349      3341      3344      3347      3350
      3342      3341      3344      3345      3342      3341      3344      3346
      3342      3341      3344      3347      3343      3341      3344      3345
      3343      3341      3344      3346      3343      3341      3344      3347
      3344      3347      3350      3351      3344      3347      3350      3352
      3344      3347      3350      3353      3345      3344      3347      3348
      3345      3344      3347      3349      3345      3344      3347      3350
      3346      3344      3347      3348      3346      3344      3347      3349
      3346      3344      3347      3350      3347      3350      3353      3354
      3347      3350      3353      3355      3347      3350      3353      3356
      3348      3347      3350      3351      3348      3347      3350      3352
      3348      3347      3350      3353      3349      3347      3350      3351
      3349      3347      3350      3352      3349      3347      3350      3353
      3350      3353      3356      3357      3350      3353      3356      3358
      3350      3353      3356      3359      3351      3350      3353      3354
      3351      3350      3353      3355      3351      3350      3353      3356
      3352      3350      3353      3354      3352      3350      3353      3355
      3352      3350      3353      3356      3353      3356      3359      3360
      3353      3356      3359      3361      3353      3356      3359      3362
      3354      3353      3356      3357      3354      3353      3356      3358
      3354      3353      3356      3359      3355      3353      3356      3357
      3355      3353      3356      3358      3355      3353      3356      3359
      3356      3359      3362      3363      3356      3359      3362      3364
      3356      3359      3362      3365      3357      3356      3359      3360
      3357      3356      3359      3361      3357      3356      3359      3362
      3358      3356      3359      3360      3358      3356      3359      3361
      3358      3356      3359      3362      3359      3362      3365      3366
      3359      3362      3365      3367      3359      3362      3365      3368
      3360      3359      3362      3363      3360      3359      3362      3364
      3360      3359      3362      3365      3361      3359      3362      3363
      3361      3359      3362      3364      3361      3359      3362      3365
      3362      3365      3368      3369      3362      3365      3368      3370
      3362      3365      3368      3371      3363      3362      3365      3366
      3363      3362      3365      3367      3363      3362      3365      3368
      3364      3362      3365      3366      3364      3362      3365      3367
      3364      3362      3365      3368      3365      3368      3371      3372
      3365      3368      3371      3373      3365      3368      3371      3374
      3366      3365      3368      3369      3366      3365      3368      3370
      3366      3365      3368      3371      3367      3365      3368      3369
      3367      3365      3368      3370      3367      3365      3368      3371
      3368      3371      3374      3375      3368      3371      3374      3376
      3368      3371      3374      3377      3369      3368      3371      3372
      3369      3368      3371      3373      3369      3368      3371      3374
      3370      3368      3371      3372      3370      3368      3371      3373
      3370      3368      3371      3374      3371      3374      3377      3378
      3371      3374      3377      3379      3371      3374      3377      3380
      3372      3371      3374      3375      3372      3371      3374      3376
      3372      3371      3374      3377      3373      3371      3374      3375
      3373      3371      3374      3376      3373      3371      3374      3377
      3375      3374      3377      3378      3375      3374      3377      3379
      3375      3374      3377      3380      3376      3374      3377      3378
      3376      3374      3377      3379      3376      3374      3377      3380
      3381      3394      3397      3398      3381      3394      3397      3399
      3381      3394      3397      3404      3382      3381      3386      3387
      3382      3381      3386      3388      3382      3381      3386      3389
      3382      3381      3390      3391      3382      3381      3390      3392
      3382      3381      3390      3393      3382      3381      3394      3395
      3382      3381      3394      3396      3382      3381      3394      3397
      3383      3382      3381      3386      3383      3382      3381      3390
      3383      3382      3381      3394      3384      3382      3381      3386
      3384      3382      3381      3390      3384      3382      3381      3394
      3385      3382      3381      3386      3385      3382      3381      3390
      3385      3382      3381      3394      3386      3381      3390      3391
      3386      3381      3390      3392      3386      3381      3390      3393
      3386      3381      3394      3395      3386      3381      3394      3396
      3386      3381      3394      3397      3387      3386      3381      3390
      3387      3386      3381      3394      3388      3386      3381      3390
      3388      3386      3381      3394      3389      3386      3381      3390
      3389      3386      3381      3394      3390      3381      3394      3395
      3390      3381      3394      3396      3390      3381      3394      3397
      3391      3390      3381      3394      3392      3390      3381      3394
      3393      3390      3381      3394      3394      3397      3404      3400
      3395      3394      3397      3398      3395      3394      3397      3399
      3395      3394      3397      3404      3396      3394      3397      3398
      3396      3394      3397      3399      3396      3394      3397      3404
      3397      3404      3400      3401      3397      3404      3400      3402
      3397      3404      3400      3403      3398      3397      3404      3400
      3399      3397      3404      3400      3400      3403      3405      3406
      3400      3403      3405      3407      3400      3403      3405      3408
      3401      3400      3403      3405      3402      3400      3403      3405
      3403      3405      3408      3409      3403      3405      3408      3410
      3403      3405      3408      3416      3404      3400      3403      3405
      3405      3408      3410      3411      3405      3408      3416      3417
      3405      3408      3416      3418      3405      3408      3416      3419
      3406      3405      3408      3409      3406      3405      3408      3410
      3406      3405      3408      3416      3407      3405      3408      3409
      3407      3405      3408      3410      3407      3405      3408      3416
      3408      3410      3411      3412      3408      3410      3411      3413
      3408      3416      3419      3420      3409      3408      3410      3411
      3409      3408      3416      3417      3409      3408      3416      3418
      3409      3408      3416      3419      3410      3408      3416      3417
      3410      3408      3416      3418      3410      3408      3416      3419
      3410      3411      3413      3414      3410      3411      3413      3415
      3410      3411      3413      3425      3411      3410      3408      3416
      3411      3413      3425      3426      3411      3413      3425      3427
      3411      3413      3425      3428      3412      3411      3413      3414
      3412      3411      3413      3415      3412      3411      3413      3425
      3413      3425      3428      3429      3413      3425      3428      3430
      3413      3425      3428      3431      3414      3413      3425      3426
      3414      3413      3425      3427      3414      3413      3425      3428
      3415      3413      3425      3426      3415      3413      3425      3427
      3415      3413      3425      3428      3416      3419      3420      3421
      3416      3419      3420      3422      3417      3416      3419      3420
      3418      3416      3419      3420      3419      3420      3422      3423
      3419      3420      3422      3424      3419      3420      3422      3468
      3420      3422      3468      3469      3420      3422      3468      3470
      3420      3422      3468      3471      3421      3420      3422      3423
      3421      3420      3422      3424      3421      3420      3422      3468
      3422      3468      3471      3472      3422      3468      3471      3473
      3422      3468      3471      3474      3423      3422      3468      3469
      3423      3422      3468      3470      3423      3422      3468      3471
      3424      3422      3468      3469      3424      3422      3468      3470
      3424      3422      3468      3471      3425      3428      3431      3432
      3425      3428      3431      3433      3425      3428      3431      3434
      3426      3425      3428      3429      3426      3425      3428      3430
      3426      3425      3428      3431      3427      3425      3428      3429
      3427      3425      3428      3430      3427      3425      3428      3431
      3428      3431      3434      3435      3428      3431      3434      3436
      3428      3431      3434      3437      3429      3428      3431      3432
      3429      3428      3431      3433      3429      3428      3431      3434
      3430      3428      3431      3432      3430      3428      3431      3433
      3430      3428      3431      3434      3431      3434      3437      3438
      3431      3434      3437      3439      3431      3434      3437      3440
      3432      3431      3434      3435      3432      3431      3434      3436
      3432      3431      3434      3437      3433      3431      3434      3435
      3433      3431      3434      3436      3433      3431      3434      3437
      3434      3437      3440      3441      3434      3437      3440      3442
      3434      3437      3440      3443      3435      3434      3437      3438
      3435      3434      3437      3439      3435      3434      3437      3440
      3436      3434      3437      3438      3436      3434      3437      3439
      3436      3434      3437      3440      3437      3440      3443      3444
      3437      3440      3443      3445      3437      3440      3443      3446
      3438      3437      3440      3441      3438      3437      3440      3442
      3438      3437      3440      3443      3439      3437      3440      3441
      3439      3437      3440      3442      3439      3437      3440      3443
      3440      3443      3446      3447      3440      3443      3446      3448
      3440      3443      3446      3449      3441      3440      3443      3444
      3441      3440      3443      3445      3441      3440      3443      3446
      3442      3440      3443      3444      3442      3440      3443      3445
      3442      3440      3443      3446      3443      3446      3449      3450
      3443      3446      3449      3451      3443      3446      3449      3452
      3444      3443      3446      3447      3444      3443      3446      3448
      3444      3443      3446      3449      3445      3443      3446      3447
      3445      3443      3446      3448      3445      3443      3446      3449
      3446      3449      3452      3453      3446      3449      3452      3454
      3446      3449      3452      3455      3447      3446      3449      3450
      3447      3446      3449      3451      3447      3446      3449      3452
      3448      3446      3449      3450      3448      3446      3449      3451
      3448      3446      3449      3452      3449      3452      3455      3456
      3449      3452      3455      3457      3449      3452      3455      3458
      3450      3449      3452      3453      3450      3449      3452      3454
      3450      3449      3452      3455      3451      3449      3452      3453
      3451      3449      3452      3454      3451      3449      3452      3455
      3452      3455      3458      3459      3452      3455      3458      3460
      3452      3455      3458      3461      3453      3452      3455      3456
      3453      3452      3455      3457      3453      3452      3455      3458
      3454      3452      3455      3456      3454      3452      3455      3457
      3454      3452      3455      3458      3455      3458      3461      3462
      3455      3458      3461      3463      3455      3458      3461      3464
      3456      3455      3458      3459      3456      3455      3458      3460
      3456      3455      3458      3461      3457      3455      3458      3459
      3457      3455      3458      3460      3457      3455      3458      3461
      3458      3461      3464      3465      3458      3461      3464      3466
      3458      3461      3464      3467      3459      3458      3461      3462
      3459      3458      3461      3463      3459      3458      3461      3464
      3460      3458      3461      3462      3460      3458      3461      3463
      3460      3458      3461      3464      3462      3461      3464      3465
      3462      3461      3464      3466      3462      3461      3464      3467
      3463      3461      3464      3465      3463      3461      3464      3466
      3463      3461      3464      3467      3468      3471      3474      3475
      3468      3471      3474      3476      3468      3471      3474      3477
      3469      3468      3471      3472      3469      3468      3471      3473
      3469      3468      3471      3474      3470      3468      3471      3472
      3470      3468      3471      3473      3470      3468      3471      3474
      3471      3474      3477      3478      3471      3474      3477      3479
      3471      3474      3477      3480      3472      3471      3474      3475
      3472      3471      3474      3476      3472      3471      3474      3477
      3473      3471      3474      3475      3473      3471      3474      3476
      3473      3471      3474      3477      3474      3477      3480      3481
      3474      3477      3480      3482      3474      3477      3480      3483
      3475      3474      3477      3478      3475      3474      3477      3479
      3475      3474      3477      3480      3476      3474      3477      3478
      3476      3474      3477      3479      3476      3474      3477      3480
      3477      3480      3483      3484      3477      3480      3483      3485
      3477      3480      3483      3486      3478      3477      3480      3481
      3478      3477      3480      3482      3478      3477      3480      3483
      3479      3477      3480      3481      3479      3477      3480      3482
      3479      3477      3480      3483      3480      3483      3486      3487
      3480      3483      3486      3488      3480      3483      3486      3489
      3481      3480      3483      3484      3481      3480      3483      3485
      3481      3480      3483      3486      3482      3480      3483      3484
      3482      3480      3483      3485      3482      3480      3483      3486
      3483      3486      3489      3490      3483      3486      3489      3491
      3483      3486      3489      3492      3484      3483      3486      3487
      3484      3483      3486      3488      3484      3483      3486      3489
      3485      3483      3486      3487      3485      3483      3486      3488
      3485      3483      3486      3489      3486      3489      3492      3493
      3486      3489      3492      3494      3486      3489      3492      3495
      3487      3486      3489      3490      3487      3486      3489      3491
      3487      3486      3489      3492      3488      3486      3489      3490
      3488      3486      3489      3491      3488      3486      3489      3492
      3489      3492      3495      3496      3489      3492      3495      3497
      3489      3492      3495      3498      3490      3489      3492      3493
      3490      3489      3492      3494      3490      3489      3492      3495
      3491      3489      3492      3493      3491      3489      3492      3494
      3491      3489      3492      3495      3492      3495      3498      3499
      3492      3495      3498      3500      3492      3495      3498      3501
      3493      3492      3495      3496      3493      3492      3495      3497
      3493      3492      3495      3498      3494      3492      3495      3496
      3494      3492      3495      3497      3494      3492      3495      3498
      3495      3498      3501      3502      3495      3498      3501      3503
      3495      3498      3501      3504      3496      3495      3498      3499
      3496      3495      3498      3500      3496      3495      3498      3501
      3497      3495      3498      3499      3497      3495      3498      3500
      3497      3495      3498      3501      3498      3501      3504      3505
      3498      3501      3504      3506      3498      3501      3504      3507
      3499      3498      3501      3502      3499      3498      3501      3503
      3499      3498      3501      3504      3500      3498      3501      3502
      3500      3498      3501      3503      3500      3498      3501      3504
      3501      3504      3507      3508      3501      3504      3507      3509
      3501      3504      3507      3510      3502      3501      3504      3505
      3502      3501      3504      3506      3502      3501      3504      3507
      3503      3501      3504      3505      3503      3501      3504      3506
      3503      3501      3504      3507      3505      3504      3507      3508
      3505      3504      3507      3509      3505      3504      3507      3510
      3506      3504      3507      3508      3506      3504      3507      3509
      3506      3504      3507      3510      3511      3524      3527      3528
      3511      3524      3527      3529      3511      3524      3527      3534
      3512      3511      3516      3517      3512      3511      3516      3518
      3512      3511      3516      3519      3512      3511      3520      3521
      3512      3511      3520      3522      3512      3511      3520      3523
      3512      3511      3524      3525      3512      3511      3524      3526
      3512      3511      3524      3527      3513      3512      3511      3516
      3513      3512      3511      3520      3513      3512      3511      3524
      3514      3512      3511      3516      3514      3512      3511      3520
      3514      3512      3511      3524      3515      3512      3511      3516
      3515      3512      3511      3520      3515      3512      3511      3524
      3516      3511      3520      3521      3516      3511      3520      3522
      3516      3511      3520      3523      3516      3511      3524      3525
      3516      3511      3524      3526      3516      3511      3524      3527
      3517      3516      3511      3520      3517      3516      3511      3524
      3518      3516      3511      3520      3518      3516      3511      3524
      3519      3516      3511      3520      3519      3516      3511      3524
      3520      3511      3524      3525      3520      3511      3524      3526
      3520      3511      3524      3527      3521      3520      3511      3524
      3522      3520      3511      3524      3523      3520      3511      3524
      3524      3527      3534      3530      3525      3524      3527      3528
      3525      3524      3527      3529      3525      3524      3527      3534
      3526      3524      3527      3528      3526      3524      3527      3529
      3526      3524      3527      3534      3527      3534      3530      3531
      3527      3534      3530      3532      3527      3534      3530      3533
      3528      3527      3534      3530      3529      3527      3534      3530
      3530      3533      3535      3536      3530      3533      3535      3537
      3530      3533      3535      3538      3531      3530      3533      3535
      3532      3530      3533      3535      3533      3535      3538      3539
      3533      3535      3538      3540      3533      3535      3538      3546
      3534      3530      3533      3535      3535      3538      3540      3541
      3535      3538      3546      3547      3535      3538      3546      3548
      3535      3538      3546      3549      3536      3535      3538      3539
      3536      3535      3538      3540      3536      3535      3538      3546
      3537      3535      3538      3539      3537      3535      3538      3540
      3537      3535      3538      3546      3538      3540      3541      3542
      3538      3540      3541      3543      3538      3546      3549      3550
      3539      3538      3540      3541      3539      3538      3546      3547
      3539      3538      3546      3548      3539      3538      3546      3549
      3540      3538      3546      3547      3540      3538      3546      3548
      3540      3538      3546      3549      3540      3541      3543      3544
      3540      3541      3543      3545      3540      3541      3543      3555
      3541      3540      3538      3546      3541      3543      3555      3556
      3541      3543      3555      3557      3541      3543      3555      3558
      3542      3541      3543      3544      3542      3541      3543      3545
      3542      3541      3543      3555      3543      3555      3558      3559
      3543      3555      3558      3560      3543      3555      3558      3561
      3544      3543      3555      3556      3544      3543      3555      3557
      3544      3543      3555      3558      3545      3543      3555      3556
      3545      3543      3555      3557      3545      3543      3555      3558
      3546      3549      3550      3551      3546      3549      3550      3552
      3547      3546      3549      3550      3548      3546      3549      3550
      3549      3550      3552      3553      3549      3550      3552      3554
      3549      3550      3552      3598      3550      3552      3598      3599
      3550      3552      3598      3600      3550      3552      3598      3601
      3551      3550      3552      3553      3551      3550      3552      3554
      3551      3550      3552      3598      3552      3598      3601      3602
      3552      3598      3601      3603      3552      3598      3601      3604
      3553      3552      3598      3599      3553      3552      3598      3600
      3553      3552      3598      3601      3554      3552      3598      3599
      3554      3552      3598      3600      3554      3552      3598      3601
      3555      3558      3561      3562      3555      3558      3561      3563
      3555      3558      3561      3564      3556      3555      3558      3559
      3556      3555      3558      3560      3556      3555      3558      3561
      3557      3555      3558      3559      3557      3555      3558      3560
      3557      3555      3558      3561      3558      3561      3564      3565
      3558      3561      3564      3566      3558      3561      3564      3567
      3559      3558      3561      3562      3559      3558      3561      3563
      3559      3558      3561      3564      3560      3558      3561      3562
      3560      3558      3561      3563      3560      3558      3561      3564
      3561      3564      3567      3568      3561      3564      3567      3569
      3561      3564      3567      3570      3562      3561      3564      3565
      3562      3561      3564      3566      3562      3561      3564      3567
      3563      3561      3564      3565      3563      3561      3564      3566
      3563      3561      3564      3567      3564      3567      3570      3571
      3564      3567      3570      3572      3564      3567      3570      3573
      3565      3564      3567      3568      3565      3564      3567      3569
      3565      3564      3567      3570      3566      3564      3567      3568
      3566      3564      3567      3569      3566      3564      3567      3570
      3567      3570      3573      3574      3567      3570      3573      3575
      3567      3570      3573      3576      3568      3567      3570      3571
      3568      3567      3570      3572      3568      3567      3570      3573
      3569      3567      3570      3571      3569      3567      3570      3572
      3569      3567      3570      3573      3570      3573      3576      3577
      3570      3573      3576      3578      3570      3573      3576      3579
      3571      3570      3573      3574      3571      3570      3573      3575
      3571      3570      3573      3576      3572      3570      3573      3574
      3572      3570      3573      3575      3572      3570      3573      3576
      3573      3576      3579      3580      3573      3576      3579      3581
      3573      3576      3579      3582      3574      3573      3576      3577
      3574      3573      3576      3578      3574      3573      3576      3579
      3575      3573      3576      3577      3575      3573      3576      3578
      3575      3573      3576      3579      3576      3579      3582      3583
      3576      3579      3582      3584      3576      3579      3582      3585
      3577      3576      3579      3580      3577      3576      3579      3581
      3577      3576      3579      3582      3578      3576      3579      3580
      3578      3576      3579      3581      3578      3576      3579      3582
      3579      3582      3585      3586      3579      3582      3585      3587
      3579      3582      3585      3588      3580      3579      3582      3583
      3580      3579      3582      3584      3580      3579      3582      3585
      3581      3579      3582      3583      3581      3579      3582      3584
      3581      3579      3582      3585      3582      3585      3588      3589
      3582      3585      3588      3590      3582      3585      3588      3591
      3583      3582      3585      3586      3583      3582      3585      3587
      3583      3582      3585      3588      3584      3582      3585      3586
      3584      3582      3585      3587      3584      3582      3585      3588
      3585      3588      3591      3592      3585      3588      3591      3593
      3585      3588      3591      3594      3586      3585      3588      3589
      3586      3585      3588      3590      3586      3585      3588      3591
      3587      3585      3588      3589      3587      3585      3588      3590
      3587      3585      3588      3591      3588      3591      3594      3595
      3588      3591      3594      3596      3588      3591      3594      3597
      3589      3588      3591      3592      3589      3588      3591      3593
      3589      3588      3591      3594      3590      3588      3591      3592
      3590      3588      3591      3593      3590      3588      3591      3594
      3592      3591      3594      3595      3592      3591      3594      3596
      3592      3591      3594      3597      3593      3591      3594      3595
      3593      3591      3594      3596      3593      3591      3594      3597
      3598      3601      3604      3605      3598      3601      3604      3606
      3598      3601      3604      3607      3599      3598      3601      3602
      3599      3598      3601      3603      3599      3598      3601      3604
      3600      3598      3601      3602      3600      3598      3601      3603
      3600      3598      3601      3604      3601      3604      3607      3608
      3601      3604      3607      3609      3601      3604      3607      3610
      3602      3601      3604      3605      3602      3601      3604      3606
      3602      3601      3604      3607      3603      3601      3604      3605
      3603      3601      3604      3606      3603      3601      3604      3607
      3604      3607      3610      3611      3604      3607      3610      3612
      3604      3607      3610      3613      3605      3604      3607      3608
      3605      3604      3607      3609      3605      3604      3607      3610
      3606      3604      3607      3608      3606      3604      3607      3609
      3606      3604      3607      3610      3607      3610      3613      3614
      3607      3610      3613      3615      3607      3610      3613      3616
      3608      3607      3610      3611      3608      3607      3610      3612
      3608      3607      3610      3613      3609      3607      3610      3611
      3609      3607      3610      3612      3609      3607      3610      3613
      3610      3613      3616      3617      3610      3613      3616      3618
      3610      3613      3616      3619      3611      3610      3613      3614
      3611      3610      3613      3615      3611      3610      3613      3616
      3612      3610      3613      3614      3612      3610      3613      3615
      3612      3610      3613      3616      3613      3616      3619      3620
      3613      3616      3619      3621      3613      3616      3619      3622
      3614      3613      3616      3617      3614      3613      3616      3618
      3614      3613      3616      3619      3615      3613      3616      3617
      3615      3613      3616      3618      3615      3613      3616      3619
      3616      3619      3622      3623      3616      3619      3622      3624
      3616      3619      3622      3625      3617      3616      3619      3620
      3617      3616      3619      3621      3617      3616      3619      3622
      3618      3616      3619      3620      3618      3616      3619      3621
      3618      3616      3619      3622      3619      3622      3625      3626
      3619      3622      3625      3627      3619      3622      3625      3628
      3620      3619      3622      3623      3620      3619      3622      3624
      3620      3619      3622      3625      3621      3619      3622      3623
      3621      3619      3622      3624      3621      3619      3622      3625
      3622      3625      3628      3629      3622      3625      3628      3630
      3622      3625      3628      3631      3623      3622      3625      3626
      3623      3622      3625      3627      3623      3622      3625      3628
      3624      3622      3625      3626      3624      3622      3625      3627
      3624      3622      3625      3628      3625      3628      3631      3632
      3625      3628      3631      3633      3625      3628      3631      3634
      3626      3625      3628      3629      3626      3625      3628      3630
      3626      3625      3628      3631      3627      3625      3628      3629
      3627      3625      3628      3630      3627      3625      3628      3631
      3628      3631      3634      3635      3628      3631      3634      3636
      3628      3631      3634      3637      3629      3628      3631      3632
      3629      3628      3631      3633      3629      3628      3631      3634
      3630      3628      3631      3632      3630      3628      3631      3633
      3630      3628      3631      3634      3631      3634      3637      3638
      3631      3634      3637      3639      3631      3634      3637      3640
      3632      3631      3634      3635      3632      3631      3634      3636
      3632      3631      3634      3637      3633      3631      3634      3635
      3633      3631      3634      3636      3633      3631      3634      3637
      3635      3634      3637      3638      3635      3634      3637      3639
      3635      3634      3637      3640      3636      3634      3637      3638
      3636      3634      3637      3639      3636      3634      3637      3640
      3641      3654      3657      3658      3641      3654      3657      3659
      3641      3654      3657      3664      3642      3641      3646      3647
      3642      3641      3646      3648      3642      3641      3646      3649
      3642      3641      3650      3651      3642      3641      3650      3652
      3642      3641      3650      3653      3642      3641      3654      3655
      3642      3641      3654      3656      3642      3641      3654      3657
      3643      3642      3641      3646      3643      3642      3641      3650
      3643      3642      3641      3654      3644      3642      3641      3646
      3644      3642      3641      3650      3644      3642      3641      3654
      3645      3642      3641      3646      3645      3642      3641      3650
      3645      3642      3641      3654      3646      3641      3650      3651
      3646      3641      3650      3652      3646      3641      3650      3653
      3646      3641      3654      3655      3646      3641      3654      3656
      3646      3641      3654      3657      3647      3646      3641      3650
      3647      3646      3641      3654      3648      3646      3641      3650
      3648      3646      3641      3654      3649      3646      3641      3650
      3649      3646      3641      3654      3650      3641      3654      3655
      3650      3641      3654      3656      3650      3641      3654      3657
      3651      3650      3641      3654      3652      3650      3641      3654
      3653      3650      3641      3654      3654      3657      3664      3660
      3655      3654      3657      3658      3655      3654      3657      3659
      3655      3654      3657      3664      3656      3654      3657      3658
      3656      3654      3657      3659      3656      3654      3657      3664
      3657      3664      3660      3661      3657      3664      3660      3662
      3657      3664      3660      3663      3658      3657      3664      3660
      3659      3657      3664      3660      3660      3663      3665      3666
      3660      3663      3665      3667      3660      3663      3665      3668
      3661      3660      3663      3665      3662      3660      3663      3665
      3663      3665      3668      3669      3663      3665      3668      3670
      3663      3665      3668      3676      3664      3660      3663      3665
      3665      3668      3670      3671      3665      3668      3676      3677
      3665      3668      3676      3678      3665      3668      3676      3679
      3666      3665      3668      3669      3666      3665      3668      3670
      3666      3665      3668      3676      3667      3665      3668      3669
      3667      3665      3668      3670      3667      3665      3668      3676
      3668      3670      3671      3672      3668      3670      3671      3673
      3668      3676      3679      3680      3669      3668      3670      3671
      3669      3668      3676      3677      3669      3668      3676      3678
      3669      3668      3676      3679      3670      3668      3676      3677
      3670      3668      3676      3678      3670      3668      3676      3679
      3670      3671      3673      3674      3670      3671      3673      3675
      3670      3671      3673      3685      3671      3670      3668      3676
      3671      3673      3685      3686      3671      3673      3685      3687
      3671      3673      3685      3688      3672      3671      3673      3674
      3672      3671      3673      3675      3672      3671      3673      3685
      3673      3685      3688      3689      3673      3685      3688      3690
      3673      3685      3688      3691      3674      3673      3685      3686
      3674      3673      3685      3687      3674      3673      3685      3688
      3675      3673      3685      3686      3675      3673      3685      3687
      3675      3673      3685      3688      3676      3679      3680      3681
      3676      3679      3680      3682      3677      3676      3679      3680
      3678      3676      3679      3680      3679      3680      3682      3683
      3679      3680      3682      3684      3679      3680      3682      3728
      3680      3682      3728      3729      3680      3682      3728      3730
      3680      3682      3728      3731      3681      3680      3682      3683
      3681      3680      3682      3684      3681      3680      3682      3728
      3682      3728      3731      3732      3682      3728      3731      3733
      3682      3728      3731      3734      3683      3682      3728      3729
      3683      3682      3728      3730      3683      3682      3728      3731
      3684      3682      3728      3729      3684      3682      3728      3730
      3684      3682      3728      3731      3685      3688      3691      3692
      3685      3688      3691      3693      3685      3688      3691      3694
      3686      3685      3688      3689      3686      3685      3688      3690
      3686      3685      3688      3691      3687      3685      3688      3689
      3687      3685      3688      3690      3687      3685      3688      3691
      3688      3691      3694      3695      3688      3691      3694      3696
      3688      3691      3694      3697      3689      3688      3691      3692
      3689      3688      3691      3693      3689      3688      3691      3694
      3690      3688      3691      3692      3690      3688      3691      3693
      3690      3688      3691      3694      3691      3694      3697      3698
      3691      3694      3697      3699      3691      3694      3697      3700
      3692      3691      3694      3695      3692      3691      3694      3696
      3692      3691      3694      3697      3693      3691      3694      3695
      3693      3691      3694      3696      3693      3691      3694      3697
      3694      3697      3700      3701      3694      3697      3700      3702
      3694      3697      3700      3703      3695      3694      3697      3698
      3695      3694      3697      3699      3695      3694      3697      3700
      3696      3694      3697      3698      3696      3694      3697      3699
      3696      3694      3697      3700      3697      3700      3703      3704
      3697      3700      3703      3705      3697      3700      3703      3706
      3698      3697      3700      3701      3698      3697      3700      3702
      3698      3697      3700      3703      3699      3697      3700      3701
      3699      3697      3700      3702      3699      3697      3700      3703
      3700      3703      3706      3707      3700      3703      3706      3708
      3700      3703      3706      3709      3701      3700      3703      3704
      3701      3700      3703      3705      3701      3700      3703      3706
      3702      3700      3703      3704      3702      3700      3703      3705
      3702      3700      3703      3706      3703      3706      3709      3710
      3703      3706      3709      3711      3703      3706      3709      3712
      3704      3703      3706      3707      3704      3703      3706      3708
      3704      3703      3706      3709      3705      3703      3706      3707
      3705      3703      3706      3708      3705      3703      3706      3709
      3706      3709      3712      3713      3706      3709      3712      3714
      3706      3709      3712      3715      3707      3706      3709      3710
      3707      3706      3709      3711      3707      3706      3709      3712
      3708      3706      3709      3710      3708      3706      3709      3711
      3708      3706      3709      3712      3709      3712      3715      3716
      3709      3712      3715      3717      3709      3712      3715      3718
      3710      3709      3712      3713      3710      3709      3712      3714
      3710      3709      3712      3715      3711      3709      3712      3713
      3711      3709      3712      3714      3711      3709      3712      3715
      3712      3715      3718      3719      3712      3715      3718      3720
      3712      3715      3718      3721      3713      3712      3715      3716
      3713      3712      3715      3717      3713      3712      3715      3718
      3714      3712      3715      3716      3714      3712      3715      3717
      3714      3712      3715      3718      3715      3718      3721      3722
      3715      3718      3721      3723      3715      3718      3721      3724
      3716      3715      3718      3719      3716      3715      3718      3720
      3716      3715      3718      3721      3717      3715      3718      3719
      3717      3715      3718      3720      3717      3715      3718      3721
      3718      3721      3724      3725      3718      3721      3724      3726
      3718      3721      3724      3727      3719      3718      3721      3722
      3719      3718      3721      3723      3719      3718      3721      3724
      3720      3718      3721      3722      3720      3718      3721      3723
      3720      3718      3721      3724      3722      3721      3724      3725
      3722      3721      3724      3726      3722      3721      3724      3727
      3723      3721      3724      3725      3723      3721      3724      3726
      3723      3721      3724      3727      3728      3731      3734      3735
      3728      3731      3734      3736      3728      3731      3734      3737
      3729      3728      3731      3732      3729      3728      3731      3733
      3729      3728      3731      3734      3730      3728      3731      3732
      3730      3728      3731      3733      3730      3728      3731      3734
      3731      3734      3737      3738      3731      3734      3737      3739
      3731      3734      3737      3740      3732      3731      3734      3735
      3732      3731      3734      3736      3732      3731      3734      3737
      3733      3731      3734      3735      3733      3731      3734      3736
      3733      3731      3734      3737      3734      3737      3740      3741
      3734      3737      3740      3742      3734      3737      3740      3743
      3735      3734      3737      3738      3735      3734      3737      3739
      3735      3734      3737      3740      3736      3734      3737      3738
      3736      3734      3737      3739      3736      3734      3737      3740
      3737      3740      3743      3744      3737      3740      3743      3745
      3737      3740      3743      3746      3738      3737      3740      3741
      3738      3737      3740      3742      3738      3737      3740      3743
      3739      3737      3740      3741      3739      3737      3740      3742
      3739      3737      3740      3743      3740      3743      3746      3747
      3740      3743      3746      3748      3740      3743      3746      3749
      3741      3740      3743      3744      3741      3740      3743      3745
      3741      3740      3743      3746      3742      3740      3743      3744
      3742      3740      3743      3745      3742      3740      3743      3746
      3743      3746      3749      3750      3743      3746      3749      3751
      3743      3746      3749      3752      3744      3743      3746      3747
      3744      3743      3746      3748      3744      3743      3746      3749
      3745      3743      3746      3747      3745      3743      3746      3748
      3745      3743      3746      3749      3746      3749      3752      3753
      3746      3749      3752      3754      3746      3749      3752      3755
      3747      3746      3749      3750      3747      3746      3749      3751
      3747      3746      3749      3752      3748      3746      3749      3750
      3748      3746      3749      3751      3748      3746      3749      3752
      3749      3752      3755      3756      3749      3752      3755      3757
      3749      3752      3755      3758      3750      3749      3752      3753
      3750      3749      3752      3754      3750      3749      3752      3755
      3751      3749      3752      3753      3751      3749      3752      3754
      3751      3749      3752      3755      3752      3755      3758      3759
      3752      3755      3758      3760      3752      3755      3758      3761
      3753      3752      3755      3756      3753      3752      3755      3757
      3753      3752      3755      3758      3754      3752      3755      3756
      3754      3752      3755      3757      3754      3752      3755      3758
      3755      3758      3761      3762      3755      3758      3761      3763
      3755      3758      3761      3764      3756      3755      3758      3759
      3756      3755      3758      3760      3756      3755      3758      3761
      3757      3755      3758      3759      3757      3755      3758      3760
      3757      3755      3758      3761      3758      3761      3764      3765
      3758      3761      3764      3766      3758      3761      3764      3767
      3759      3758      3761      3762      3759      3758      3761      3763
      3759      3758      3761      3764      3760      3758      3761      3762
      3760      3758      3761      3763      3760      3758      3761      3764
      3761      3764      3767      3768      3761      3764      3767      3769
      3761      3764      3767      3770      3762      3761      3764      3765
      3762      3761      3764      3766      3762      3761      3764      3767
      3763      3761      3764      3765      3763      3761      3764      3766
      3763      3761      3764      3767      3765      3764      3767      3768
      3765      3764      3767      3769      3765      3764      3767      3770
      3766      3764      3767      3768      3766      3764      3767      3769
      3766      3764      3767      3770      3771      3784      3787      3788
      3771      3784      3787      3789      3771      3784      3787      3794
      3772      3771      3776      3777      3772      3771      3776      3778
      3772      3771      3776      3779      3772      3771      3780      3781
      3772      3771      3780      3782      3772      3771      3780      3783
      3772      3771      3784      3785      3772      3771      3784      3786
      3772      3771      3784      3787      3773      3772      3771      3776
      3773      3772      3771      3780      3773      3772      3771      3784
      3774      3772      3771      3776      3774      3772      3771      3780
      3774      3772      3771      3784      3775      3772      3771      3776
      3775      3772      3771      3780      3775      3772      3771      3784
      3776      3771      3780      3781      3776      3771      3780      3782
      3776      3771      3780      3783      3776      3771      3784      3785
      3776      3771      3784      3786      3776      3771      3784      3787
      3777      3776      3771      3780      3777      3776      3771      3784
      3778      3776      3771      3780      3778      3776      3771      3784
      3779      3776      3771      3780      3779      3776      3771      3784
      3780      3771      3784      3785      3780      3771      3784      3786
      3780      3771      3784      3787      3781      3780      3771      3784
      3782      3780      3771      3784      3783      3780      3771      3784
      3784      3787      3794      3790      3785      3784      3787      3788
      3785      3784      3787      3789      3785      3784      3787      3794
      3786      3784      3787      3788      3786      3784      3787      3789
      3786      3784      3787      3794      3787      3794      3790      3791
      3787      3794      3790      3792      3787      3794      3790      3793
      3788      3787      3794      3790      3789      3787      3794      3790
      3790      3793      3795      3796      3790      3793      3795      3797
      3790      3793      3795      3798      3791      3790      3793      3795
      3792      3790      3793      3795      3793      3795      3798      3799
      3793      3795      3798      3800      3793      3795      3798      3806
      3794      3790      3793      3795      3795      3798      3800      3801
      3795      3798      3806      3807      3795      3798      3806      3808
      3795      3798      3806      3809      3796      3795      3798      3799
      3796      3795      3798      3800      3796      3795      3798      3806
      3797      3795      3798      3799      3797      3795      3798      3800
      3797      3795      3798      3806      3798      3800      3801      3802
      3798      3800      3801      3803      3798      3806      3809      3810
      3799      3798      3800      3801      3799      3798      3806      3807
      3799      3798      3806      3808      3799      3798      3806      3809
      3800      3798      3806      3807      3800      3798      3806      3808
      3800      3798      3806      3809      3800      3801      3803      3804
      3800      3801      3803      3805      3800      3801      3803      3815
      3801      3800      3798      3806      3801      3803      3815      3816
      3801      3803      3815      3817      3801      3803      3815      3818
      3802      3801      3803      3804      3802      3801      3803      3805
      3802      3801      3803      3815      3803      3815      3818      3819
      3803      3815      3818      3820      3803      3815      3818      3821
      3804      3803      3815      3816      3804      3803      3815      3817
      3804      3803      3815      3818      3805      3803      3815      3816
      3805      3803      3815      3817      3805      3803      3815      3818
      3806      3809      3810      3811      3806      3809      3810      3812
      3807      3806      3809      3810      3808      3806      3809      3810
      3809      3810      3812      3813      3809      3810      3812      3814
      3809      3810      3812      3858      3810      3812      3858      3859
      3810      3812      3858      3860      3810      3812      3858      3861
      3811      3810      3812      3813      3811      3810      3812      3814
      3811      3810      3812      3858      3812      3858      3861      3862
      3812      3858      3861      3863      3812      3858      3861      3864
      3813      3812      3858      3859      3813      3812      3858      3860
      3813      3812      3858      3861      3814      3812      3858      3859
      3814      3812      3858      3860      3814      3812      3858      3861
      3815      3818      3821      3822      3815      3818      3821      3823
      3815      3818      3821      3824      3816      3815      3818      3819
      3816      3815      3818      3820      3816      3815      3818      3821
      3817      3815      3818      3819      3817      3815      3818      3820
      3817      3815      3818      3821      3818      3821      3824      3825
      3818      3821      3824      3826      3818      3821      3824      3827
      3819      3818      3821      3822      3819      3818      3821      3823
      3819      3818      3821      3824      3820      3818      3821      3822
      3820      3818      3821      3823      3820      3818      3821      3824
      3821      3824      3827      3828      3821      3824      3827      3829
      3821      3824      3827      3830      3822      3821      3824      3825
      3822      3821      3824      3826      3822      3821      3824      3827
      3823      3821      3824      3825      3823      3821      3824      3826
      3823      3821      3824      3827      3824      3827      3830      3831
      3824      3827      3830      3832      3824      3827      3830      3833
      3825      3824      3827      3828      3825      3824      3827      3829
      3825      3824      3827      3830      3826      3824      3827      3828
      3826      3824      3827      3829      3826      3824      3827      3830
      3827      3830      3833      3834      3827      3830      3833      3835
      3827      3830      3833      3836      3828      3827      3830      3831
      3828      3827      3830      3832      3828      3827      3830      3833
      3829      3827      3830      3831      3829      3827      3830      3832
      3829      3827      3830      3833      3830      3833      3836      3837
      3830      3833      3836      3838      3830      3833      3836      3839
      3831      3830      3833      3834      3831      3830      3833      3835
      3831      3830      3833      3836      3832      3830      3833      3834
      3832      3830      3833      3835      3832      3830      3833      3836
      3833      3836      3839      3840      3833      3836      3839      3841
      3833      3836      3839      3842      3834      3833      3836      3837
      3834      3833      3836      3838      3834      3833      3836      3839
      3835      3833      3836      3837      3835      3833      3836      3838
      3835      3833      3836      3839      3836      3839      3842      3843
      3836      3839      3842      3844      3836      3839      3842      3845
      3837      3836      3839      3840      3837      3836      3839      3841
      3837      3836      3839      3842      3838      3836      3839      3840
      3838      3836      3839      3841      3838      3836      3839      3842
      3839      3842      3845      3846      3839      3842      3845      3847
      3839      3842      3845      3848      3840      3839      3842      3843
      3840      3839      3842      3844      3840      3839      3842      3845
      3841      3839      3842      3843      3841      3839      3842      3844
      3841      3839      3842      3845      3842      3845      3848      3849
      3842      3845      3848      3850      3842      3845      3848      3851
      3843      3842      3845      3846      3843      3842      3845      3847
      3843      3842      3845      3848      3844      3842      3845      3846
      3844      3842      3845      3847      3844      3842      3845      3848
      3845      3848      3851      3852      3845      3848      3851      3853
      3845      3848      3851      3854      3846      3845      3848      3849
      3846      3845      3848      3850      3846      3845      3848      3851
      3847      3845      3848      3849      3847      3845      3848      3850
      3847      3845      3848      3851      3848      3851      3854      3855
      3848      3851      3854      3856      3848      3851      3854      3857
      3849      3848      3851      3852      3849      3848      3851      3853
      3849      3848      3851      3854      3850      3848      3851      3852
      3850      3848      3851      3853      3850      3848      3851      3854
      3852      3851      3854      3855      3852      3851      3854      3856
      3852      3851      3854      3857      3853      3851      3854      3855
      3853      3851      3854      3856      3853      3851      3854      3857
      3858      3861      3864      3865      3858      3861      3864      3866
      3858      3861      3864      3867      3859      3858      3861      3862
      3859      3858      3861      3863      3859      3858      3861      3864
      3860      3858      3861      3862      3860      3858      3861      3863
      3860      3858      3861      3864      3861      3864      3867      3868
      3861      3864      3867      3869      3861      3864      3867      3870
      3862      3861      3864      3865      3862      3861      3864      3866
      3862      3861      3864      3867      3863      3861      3864      3865
      3863      3861      3864      3866      3863      3861      3864      3867
      3864      3867      3870      3871      3864      3867      3870      3872
      3864      3867      3870      3873      3865      3864      3867      3868
      3865      3864      3867      3869      3865      3864      3867      3870
      3866      3864      3867      3868      3866      3864      3867      3869
      3866      3864      3867      3870      3867      3870      3873      3874
      3867      3870      3873      3875      3867      3870      3873      3876
      3868      3867      3870      3871      3868      3867      3870      3872
      3868      3867      3870      3873      3869      3867      3870      3871
      3869      3867      3870      3872      3869      3867      3870      3873
      3870      3873      3876      3877      3870      3873      3876      3878
      3870      3873      3876      3879      3871      3870      3873      3874
      3871      3870      3873      3875      3871      3870      3873      3876
      3872      3870      3873      3874      3872      3870      3873      3875
      3872      3870      3873      3876      3873      3876      3879      3880
      3873      3876      3879      3881      3873      3876      3879      3882
      3874      3873      3876      3877      3874      3873      3876      3878
      3874      3873      3876      3879      3875      3873      3876      3877
      3875      3873      3876      3878      3875      3873      3876      3879
      3876      3879      3882      3883      3876      3879      3882      3884
      3876      3879      3882      3885      3877      3876      3879      3880
      3877      3876      3879      3881      3877      3876      3879      3882
      3878      3876      3879      3880      3878      3876      3879      3881
      3878      3876      3879      3882      3879      3882      3885      3886
      3879      3882      3885      3887      3879      3882      3885      3888
      3880      3879      3882      3883      3880      3879      3882      3884
      3880      3879      3882      3885      3881      3879      3882      3883
      3881      3879      3882      3884      3881      3879      3882      3885
      3882      3885      3888      3889      3882      3885      3888      3890
      3882      3885      3888      3891      3883      3882      3885      3886
      3883      3882      3885      3887      3883      3882      3885      3888
      3884      3882      3885      3886      3884      3882      3885      3887
      3884      3882      3885      3888      3885      3888      3891      3892
      3885      3888      3891      3893      3885      3888      3891      3894
      3886      3885      3888      3889      3886      3885      3888      3890
      3886      3885      3888      3891      3887      3885      3888      3889
      3887      3885      3888      3890      3887      3885      3888      3891
      3888      3891      3894      3895      3888      3891      3894      3896
      3888      3891      3894      3897      3889      3888      3891      3892
      3889      3888      3891      3893      3889      3888      3891      3894
      3890      3888      3891      3892      3890      3888      3891      3893
      3890      3888      3891      3894      3891      3894      3897      3898
      3891      3894      3897      3899      3891      3894      3897      3900
      3892      3891      3894      3895      3892      3891      3894      3896
      3892      3891      3894      3897      3893      3891      3894      3895
      3893      3891      3894      3896      3893      3891      3894      3897
      3895      3894      3897      3898      3895      3894      3897      3899
      3895      3894      3897      3900      3896      3894      3897      3898
      3896      3894      3897      3899      3896      3894      3897      3900
      3901      3914      3917      3918      3901      3914      3917      3919
      3901      3914      3917      3924      3902      3901      3906      3907
      3902      3901      3906      3908      3902      3901      3906      3909
      3902      3901      3910      3911      3902      3901      3910      3912
      3902      3901      3910      3913      3902      3901      3914      3915
      3902      3901      3914      3916      3902      3901      3914      3917
      3903      3902      3901      3906      3903      3902      3901      3910
      3903      3902      3901      3914      3904      3902      3901      3906
      3904      3902      3901      3910      3904      3902      3901      3914
      3905      3902      3901      3906      3905      3902      3901      3910
      3905      3902      3901      3914      3906      3901      3910      3911
      3906      3901      3910      3912      3906      3901      3910      3913
      3906      3901      3914      3915      3906      3901      3914      3916
      3906      3901      3914      3917      3907      3906      3901      3910
      3907      3906      3901      3914      3908      3906      3901      3910
      3908      3906      3901      3914      3909      3906      3901      3910
      3909      3906      3901      3914      3910      3901      3914      3915
      3910      3901      3914      3916      3910      3901      3914      3917
      3911      3910      3901      3914      3912      3910      3901      3914
      3913      3910      3901      3914      3914      3917      3924      3920
      3915      3914      3917      3918      3915      3914      3917      3919
      3915      3914      3917      3924      3916      3914      3917      3918
      3916      3914      3917      3919      3916      3914      3917      3924
      3917      3924      3920      3921      3917      3924      3920      3922
      3917      3924      3920      3923      3918      3917      3924      3920
      3919      3917      3924      3920      3920      3923      3925      3926
      3920      3923      3925      3927      3920      3923      3925      3928
      3921      3920      3923      3925      3922      3920      3923      3925
      3923      3925      3928      3929      3923      3925      3928      3930
      3923      3925      3928      3936      3924      3920      3923      3925
      3925      3928      3930      3931      3925      3928      3936      3937
      3925      3928      3936      3938      3925      3928      3936      3939
      3926      3925      3928      3929      3926      3925      3928      3930
      3926      3925      3928      3936      3927      3925      3928      3929
      3927      3925      3928      3930      3927      3925      3928      3936
      3928      3930      3931      3932      3928      3930      3931      3933
      3928      3936      3939      3940      3929      3928      3930      3931
      3929      3928      3936      3937      3929      3928      3936      3938
      3929      3928      3936      3939      3930      3928      3936      3937
      3930      3928      3936      3938      3930      3928      3936      3939
      3930      3931      3933      3934      3930      3931      3933      3935
      3930      3931      3933      3945      3931      3930      3928      3936
      3931      3933      3945      3946      3931      3933      3945      3947
      3931      3933      3945      3948      3932      3931      3933      3934
      3932      3931      3933      3935      3932      3931      3933      3945
      3933      3945      3948      3949      3933      3945      3948      3950
      3933      3945      3948      3951      3934      3933      3945      3946
      3934      3933      3945      3947      3934      3933      3945      3948
      3935      3933      3945      3946      3935      3933      3945      3947
      3935      3933      3945      3948      3936      3939      3940      3941
      3936      3939      3940      3942      3937      3936      3939      3940
      3938      3936      3939      3940      3939      3940      3942      3943
      3939      3940      3942      3944      3939      3940      3942      3988
      3940      3942      3988      3989      3940      3942      3988      3990
      3940      3942      3988      3991      3941      3940      3942      3943
      3941      3940      3942      3944      3941      3940      3942      3988
      3942      3988      3991      3992      3942      3988      3991      3993
      3942      3988      3991      3994      3943      3942      3988      3989
      3943      3942      3988      3990      3943      3942      3988      3991
      3944      3942      3988      3989      3944      3942      3988      3990
      3944      3942      3988      3991      3945      3948      3951      3952
      3945      3948      3951      3953      3945      3948      3951      3954
      3946      3945      3948      3949      3946      3945      3948      3950
      3946      3945      3948      3951      3947      3945      3948      3949
      3947      3945      3948      3950      3947      3945      3948      3951
      3948      3951      3954      3955      3948      3951      3954      3956
      3948      3951      3954      3957      3949      3948      3951      3952
      3949      3948      3951      3953      3949      3948      3951      3954
      3950      3948      3951      3952      3950      3948      3951      3953
      3950      3948      3951      3954      3951      3954      3957      3958
      3951      3954      3957      3959      3951      3954      3957      3960
      3952      3951      3954      3955      3952      3951      3954      3956
      3952      3951      3954      3957      3953      3951      3954      3955
      3953      3951      3954      3956      3953      3951      3954      3957
      3954      3957      3960      3961      3954      3957      3960      3962
      3954      3957      3960      3963      3955      3954      3957      3958
      3955      3954      3957      3959      3955      3954      3957      3960
      3956      3954      3957      3958      3956      3954      3957      3959
      3956      3954      3957      3960      3957      3960      3963      3964
      3957      3960      3963      3965      3957      3960      3963      3966
      3958      3957      3960      3961      3958      3957      3960      3962
      3958      3957      3960      3963      3959      3957      3960      3961
      3959      3957      3960      3962      3959      3957      3960      3963
      3960      3963      3966      3967      3960      3963      3966      3968
      3960      3963      3966      3969      3961      3960      3963      3964
      3961      3960      3963      3965      3961      3960      3963      3966
      3962      3960      3963      3964      3962      3960      3963      3965
      3962      3960      3963      3966      3963      3966      3969      3970
      3963      3966      3969      3971      3963      3966      3969      3972
      3964      3963      3966      3967      3964      3963      3966      3968
      3964      3963      3966      3969      3965      3963      3966      3967
      3965      3963      3966      3968      3965      3963      3966      3969
      3966      3969      3972      3973      3966      3969      3972      3974
      3966      3969      3972      3975      3967      3966      3969      3970
      3967      3966      3969      3971      3967      3966      3969      3972
      3968      3966      3969      3970      3968      3966      3969      3971
      3968      3966      3969      3972      3969      3972      3975      3976
      3969      3972      3975      3977      3969      3972      3975      3978
      3970      3969      3972      3973      3970      3969      3972      3974
      3970      3969      3972      3975      3971      3969      3972      3973
      3971      3969      3972      3974      3971      3969      3972      3975
      3972      3975      3978      3979      3972      3975      3978      3980
      3972      3975      3978      3981      3973      3972      3975      3976
      3973      3972      3975      3977      3973      3972      3975      3978
      3974      3972      3975      3976      3974      3972      3975      3977
      3974      3972      3975      3978      3975      3978      3981      3982
      3975      3978      3981      3983      3975      3978      3981      3984
      3976      3975      3978      3979      3976      3975      3978      3980
      3976      3975      3978      3981      3977      3975      3978      3979
      3977      3975      3978      3980      3977      3975      3978      3981
      3978      3981      3984      3985      3978      3981      3984      3986
      3978      3981      3984      3987      3979      3978      3981      3982
      3979      3978      3981      3983      3979      3978      3981      3984
      3980      3978      3981      3982      3980      3978      3981      3983
      3980      3978      3981      3984      3982      3981      3984      3985
      3982      3981      3984      3986      3982      3981      3984      3987
      3983      3981      3984      3985      3983      3981      3984      3986
      3983      3981      3984      3987      3988      3991      3994      3995
      3988      3991      3994      3996      3988      3991      3994      3997
      3989      3988      3991      3992      3989      3988      3991      3993
      3989      3988      3991      3994      3990      3988      3991      3992
      3990      3988      3991      3993      3990      3988      3991      3994
      3991      3994      3997      3998      3991      3994      3997      3999
      3991      3994      3997      4000      3992      3991      3994      3995
      3992      3991      3994      3996      3992      3991      3994      3997
      3993      3991      3994      3995      3993      3991      3994      3996
      3993      3991      3994      3997      3994      3997      4000      4001
      3994      3997      4000      4002      3994      3997      4000      4003
      3995      3994      3997      3998      3995      3994      3997      3999
      3995      3994      3997      4000      3996      3994      3997      3998
      3996      3994      3997      3999      3996      3994      3997      4000
      3997      4000      4003      4004      3997      4000      4003      4005
      3997      4000      4003      4006      3998      3997      4000      4001
      3998      3997      4000      4002      3998      3997      4000      4003
      3999      3997      4000      4001      3999      3997      4000      4002
      3999      3997      4000      4003      4000      4003      4006      4007
      4000      4003      4006      4008      4000      4003      4006      4009
      4001      4000      4003      4004      4001      4000      4003      4005
      4001      4000      4003      4006      4002      4000      4003      4004
      4002      4000      4003      4005      4002      4000      4003      4006
      4003      4006      4009      4010      4003      4006      4009      4011
      4003      4006      4009      4012      4004      4003      4006      4007
      4004      4003      4006      4008      4004      4003      4006      4009
      4005      4003      4006      4007      4005      4003      4006      4008
      4005      4003      4006      4009      4006      4009      4012      4013
      4006      4009      4012      4014      4006      4009      4012      4015
      4007      4006      4009      4010      4007      4006      4009      4011
      4007      4006      4009      4012      4008      4006      4009      4010
      4008      4006      4009      4011      4008      4006      4009      4012
      4009      4012      4015      4016      4009      4012      4015      4017
      4009      4012      4015      4018      4010      4009      4012      4013
      4010      4009      4012      4014      4010      4009      4012      4015
      4011      4009      4012      4013      4011      4009      4012      4014
      4011      4009      4012      4015      4012      4015      4018      4019
      4012      4015      4018      4020      4012      4015      4018      4021
      4013      4012      4015      4016      4013      4012      4015      4017
      4013      4012      4015      4018      4014      4012      4015      4016
      4014      4012      4015      4017      4014      4012      4015      4018
      4015      4018      4021      4022      4015      4018      4021      4023
      4015      4018      4021      4024      4016      4015      4018      4019
      4016      4015      4018      4020      4016      4015      4018      4021
      4017      4015      4018      4019      4017      4015      4018      4020
      4017      4015      4018      4021      4018      4021      4024      4025
      4018      4021      4024      4026      4018      4021      4024      4027
      4019      4018      4021      4022      4019      4018      4021      4023
      4019      4018      4021      4024      4020      4018      4021      4022
      4020      4018      4021      4023      4020      4018      4021      4024
      4021      4024      4027      4028      4021      4024      4027      4029
      4021      4024      4027      4030      4022      4021      4024      4025
      4022      4021      4024      4026      4022      4021      4024      4027
      4023      4021      4024      4025      4023      4021      4024      4026
      4023      4021      4024      4027      4025      4024      4027      4028
      4025      4024      4027      4029      4025      4024      4027      4030
      4026      4024      4027      4028      4026      4024      4027      4029
      4026      4024      4027      4030      4031      4044      4047      4048
      4031      4044      4047      4049      4031      4044      4047      4054
      4032      4031      4036      4037      4032      4031      4036      4038
      4032      4031      4036      4039      4032      4031      4040      4041
      4032      4031      4040      4042      4032      4031      4040      4043
      4032      4031      4044      4045      4032      4031      4044      4046
      4032      4031      4044      4047      4033      4032      4031      4036
      4033      4032      4031      4040      4033      4032      4031      4044
      4034      4032      4031      4036      4034      4032      4031      4040
      4034      4032      4031      4044      4035      4032      4031      4036
      4035      4032      4031      4040      4035      4032      4031      4044
      4036      4031      4040      4041      4036      4031      4040      4042
      4036      4031      4040      4043      4036      4031      4044      4045
      4036      4031      4044      4046      4036      4031      4044      4047
      4037      4036      4031      4040      4037      4036      4031      4044
      4038      4036      4031      4040      4038      4036      4031      4044
      4039      4036      4031      4040      4039      4036      4031      4044
      4040      4031      4044      4045      4040      4031      4044      4046
      4040      4031      4044      4047      4041      4040      4031      4044
      4042      4040      4031      4044      4043      4040      4031      4044
      4044      4047      4054      4050      4045      4044      4047      4048
      4045      4044      4047      4049      4045      4044      4047      4054
      4046      4044      4047      4048      4046      4044      4047      4049
      4046      4044      4047      4054      4047      4054      4050      4051
      4047      4054      4050      4052      4047      4054      4050      4053
      4048      4047      4054      4050      4049      4047      4054      4050
      4050      4053      4055      4056      4050      4053      4055      4057
      4050      4053      4055      4058      4051      4050      4053      4055
      4052      4050      4053      4055      4053      4055      4058      4059
      4053      4055      4058      4060      4053      4055      4058      4066
      4054      4050      4053      4055      4055      4058      4060      4061
      4055      4058      4066      4067      4055      4058      4066      4068
      4055      4058      4066      4069      4056      4055      4058      4059
      4056      4055      4058      4060      4056      4055      4058      4066
      4057      4055      4058      4059      4057      4055      4058      4060
      4057      4055      4058      4066      4058      4060      4061      4062
      4058      4060      4061      4063      4058      4066      4069      4070
      4059      4058      4060      4061      4059      4058      4066      4067
      4059      4058      4066      4068      4059      4058      4066      4069
      4060      4058      4066      4067      4060      4058      4066      4068
      4060      4058      4066      4069      4060      4061      4063      4064
      4060      4061      4063      4065      4060      4061      4063      4075
      4061      4060      4058      4066      4061      4063      4075      4076
      4061      4063      4075      4077      4061      4063      4075      4078
      4062      4061      4063      4064      4062      4061      4063      4065
      4062      4061      4063      4075      4063      4075      4078      4079
      4063      4075      4078      4080      4063      4075      4078      4081
      4064      4063      4075      4076      4064      4063      4075      4077
      4064      4063      4075      4078      4065      4063      4075      4076
      4065      4063      4075      4077      4065      4063      4075      4078
      4066      4069      4070      4071      4066      4069      4070      4072
      4067      4066      4069      4070      4068      4066      4069      4070
      4069      4070      4072      4073      4069      4070      4072      4074
      4069      4070      4072      4118      4070      4072      4118      4119
      4070      4072      4118      4120      4070      4072      4118      4121
      4071      4070      4072      4073      4071      4070      4072      4074
      4071      4070      4072      4118      4072      4118      4121      4122
      4072      4118      4121      4123      4072      4118      4121      4124
      4073      4072      4118      4119      4073      4072      4118      4120
      4073      4072      4118      4121      4074      4072      4118      4119
      4074      4072      4118      4120      4074      4072      4118      4121
      4075      4078      4081      4082      4075      4078      4081      4083
      4075      4078      4081      4084      4076      4075      4078      4079
      4076      4075      4078      4080      4076      4075      4078      4081
      4077      4075      4078      4079      4077      4075      4078      4080
      4077      4075      4078      4081      4078      4081      4084      4085
      4078      4081      4084      4086      4078      4081      4084      4087
      4079      4078      4081      4082      4079      4078      4081      4083
      4079      4078      4081      4084      4080      4078      4081      4082
      4080      4078      4081      4083      4080      4078      4081      4084
      4081      4084      4087      4088      4081      4084      4087      4089
      4081      4084      4087      4090      4082      4081      4084      4085
      4082      4081      4084      4086      4082      4081      4084      4087
      4083      4081      4084      4085      4083      4081      4084      4086
      4083      4081      4084      4087      4084      4087      4090      4091
      4084      4087      4090      4092      4084      4087      4090      4093
      4085      4084      4087      4088      4085      4084      4087      4089
      4085      4084      4087      4090      4086      4084      4087      4088
      4086      4084      4087      4089      4086      4084      4087      4090
      4087      4090      4093      4094      4087      4090      4093      4095
      4087      4090      4093      4096      4088      4087      4090      4091
      4088      4087      4090      4092      4088      4087      4090      4093
      4089      4087      4090      4091      4089      4087      4090      4092
      4089      4087      4090      4093      4090      4093      4096      4097
      4090      4093      4096      4098      4090      4093      4096      4099
      4091      4090      4093      4094      4091      4090      4093      4095
      4091      4090      4093      4096      4092      4090      4093      4094
      4092      4090      4093      4095      4092      4090      4093      4096
      4093      4096      4099      4100      4093      4096      4099      4101
      4093      4096      4099      4102      4094      4093      4096      4097
      4094      4093      4096      4098      4094      4093      4096      4099
      4095      4093      4096      4097      4095      4093      4096      4098
      4095      4093      4096      4099      4096      4099      4102      4103
      4096      4099      4102      4104      4096      4099      4102      4105
      4097      4096      4099      4100      4097      4096      4099      4101
      4097      4096      4099      4102      4098      4096      4099      4100
      4098      4096      4099      4101      4098      4096      4099      4102
      4099      4102      4105      4106      4099      4102      4105      4107
      4099      4102      4105      4108      4100      4099      4102      4103
      4100      4099      4102      4104      4100      4099      4102      4105
      4101      4099      4102      4103      4101      4099      4102      4104
      4101      4099      4102      4105      4102      4105      4108      4109
      4102      4105      4108      4110      4102      4105      4108      4111
      4103      4102      4105      4106      4103      4102      4105      4107
      4103      4102      4105      4108      4104      4102      4105      4106
      4104      4102      4105      4107      4104      4102      4105      4108
      4105      4108      4111      4112      4105      4108      4111      4113
      4105      4108      4111      4114      4106      4105      4108      4109
      4106      4105      4108      4110      4106      4105      4108      4111
      4107      4105      4108      4109      4107      4105      4108      4110
      4107      4105      4108      4111      4108      4111      4114      4115
      4108      4111      4114      4116      4108      4111      4114      4117
      4109      4108      4111      4112      4109      4108      4111      4113
      4109      4108      4111      4114      4110      4108      4111      4112
      4110      4108      4111      4113      4110      4108      4111      4114
      4112      4111      4114      4115      4112      4111      4114      4116
      4112      4111      4114      4117      4113      4111      4114      4115
      4113      4111      4114      4116      4113      4111      4114      4117
      4118      4121      4124      4125      4118      4121      4124      4126
      4118      4121      4124      4127      4119      4118      4121      4122
      4119      4118      4121      4123      4119      4118      4121      4124
      4120      4118      4121      4122      4120      4118      4121      4123
      4120      4118      4121      4124      4121      4124      4127      4128
      4121      4124      4127      4129      4121      4124      4127      4130
      4122      4121      4124      4125      4122      4121      4124      4126
      4122      4121      4124      4127      4123      4121      4124      4125
      4123      4121      4124      4126      4123      4121      4124      4127
      4124      4127      4130      4131      4124      4127      4130      4132
      4124      4127      4130      4133      4125      4124      4127      4128
      4125      4124      4127      4129      4125      4124      4127      4130
      4126      4124      4127      4128      4126      4124      4127      4129
      4126      4124      4127      4130      4127      4130      4133      4134
      4127      4130      4133      4135      4127      4130      4133      4136
      4128      4127      4130      4131      4128      4127      4130      4132
      4128      4127      4130      4133      4129      4127      4130      4131
      4129      4127      4130      4132      4129      4127      4130      4133
      4130      4133      4136      4137      4130      4133      4136      4138
      4130      4133      4136      4139      4131      4130      4133      4134
      4131      4130      4133      4135      4131      4130      4133      4136
      4132      4130      4133      4134      4132      4130      4133      4135
      4132      4130      4133      4136      4133      4136      4139      4140
      4133      4136      4139      4141      4133      4136      4139      4142
      4134      4133      4136      4137      4134      4133      4136      4138
      4134      4133      4136      4139      4135      4133      4136      4137
      4135      4133      4136      4138      4135      4133      4136      4139
      4136      4139      4142      4143      4136      4139      4142      4144
      4136      4139      4142      4145      4137      4136      4139      4140
      4137      4136      4139      4141      4137      4136      4139      4142
      4138      4136      4139      4140      4138      4136      4139      4141
      4138      4136      4139      4142      4139      4142      4145      4146
      4139      4142      4145      4147      4139      4142      4145      4148
      4140      4139      4142      4143      4140      4139      4142      4144
      4140      4139      4142      4145      4141      4139      4142      4143
      4141      4139      4142      4144      4141      4139      4142      4145
      4142      4145      4148      4149      4142      4145      4148      4150
      4142      4145      4148      4151      4143      4142      4145      4146
      4143      4142      4145      4147      4143      4142      4145      4148
      4144      4142      4145      4146      4144      4142      4145      4147
      4144      4142      4145      4148      4145      4148      4151      4152
      4145      4148      4151      4153      4145      4148      4151      4154
      4146      4145      4148      4149      4146      4145      4148      4150
      4146      4145      4148      4151      4147      4145      4148      4149
      4147      4145      4148      4150      4147      4145      4148      4151
      4148      4151      4154      4155      4148      4151      4154      4156
      4148      4151      4154      4157      4149      4148      4151      4152
      4149      4148      4151      4153      4149      4148      4151      4154
      4150      4148      4151      4152      4150      4148      4151      4153
      4150      4148      4151      4154      4151      4154      4157      4158
      4151      4154      4157      4159      4151      4154      4157      4160
      4152      4151      4154      4155      4152      4151      4154      4156
      4152      4151      4154      4157      4153      4151      4154      4155
      4153      4151      4154      4156      4153      4151      4154      4157
      4155      4154      4157      4158      4155      4154      4157      4159
      4155      4154      4157      4160      4156      4154      4157      4158
      4156      4154      4157      4159      4156      4154      4157      4160
      4161      4174      4177      4178      4161      4174      4177      4179
      4161      4174      4177      4184      4162      4161      4166      4167
      4162      4161      4166      4168      4162      4161      4166      4169
      4162      4161      4170      4171      4162      4161      4170      4172
      4162      4161      4170      4173      4162      4161      4174      4175
      4162      4161      4174      4176      4162      4161      4174      4177
      4163      4162      4161      4166      4163      4162      4161      4170
      4163      4162      4161      4174      4164      4162      4161      4166
      4164      4162      4161      4170      4164      4162      4161      4174
      4165      4162      4161      4166      4165      4162      4161      4170
      4165      4162      4161      4174      4166      4161      4170      4171
      4166      4161      4170      4172      4166      4161      4170      4173
      4166      4161      4174      4175      4166      4161      4174      4176
      4166      4161      4174      4177      4167      4166      4161      4170
      4167      4166      4161      4174      4168      4166      4161      4170
      4168      4166      4161      4174      4169      4166      4161      4170
      4169      4166      4161      4174      4170      4161      4174      4175
      4170      4161      4174      4176      4170      4161      4174      4177
      4171      4170      4161      4174      4172      4170      4161      4174
      4173      4170      4161      4174      4174      4177      4184      4180
      4175      4174      4177      4178      4175      4174      4177      4179
      4175      4174      4177      4184      4176      4174      4177      4178
      4176      4174      4177      4179      4176      4174      4177      4184
      4177      4184      4180      4181      4177      4184      4180      4182
      4177      4184      4180      4183      4178      4177      4184      4180
      4179      4177      4184      4180      4180      4183      4185      4186
      4180      4183      4185      4187      4180      4183      4185      4188
      4181      4180      4183      4185      4182      4180      4183      4185
      4183      4185      4188      4189      4183      4185      4188      4190
      4183      4185      4188      4196      4184      4180      4183      4185
      4185      4188      4190      4191      4185      4188      4196      4197
      4185      4188      4196      4198      4185      4188      4196      4199
      4186      4185      4188      4189      4186      4185      4188      4190
      4186      4185      4188      4196      4187      4185      4188      4189
      4187      4185      4188      4190      4187      4185      4188      4196
      4188      4190      4191      4192      4188      4190      4191      4193
      4188      4196      4199      4200      4189      4188      4190      4191
      4189      4188      4196      4197      4189      4188      4196      4198
      4189      4188      4196      4199      4190      4188      4196      4197
      4190      4188      4196      4198      4190      4188      4196      4199
      4190      4191      4193      4194      4190      4191      4193      4195
      4190      4191      4193      4205      4191      4190      4188      4196
      4191      4193      4205      4206      4191      4193      4205      4207
      4191      4193      4205      4208      4192      4191      4193      4194
      4192      4191      4193      4195      4192      4191      4193      4205
      4193      4205      4208      4209      4193      4205      4208      4210
      4193      4205      4208      4211      4194      4193      4205      4206
      4194      4193      4205      4207      4194      4193      4205      4208
      4195      4193      4205      4206      4195      4193      4205      4207
      4195      4193      4205      4208      4196      4199      4200      4201
      4196      4199      4200      4202      4197      4196      4199      4200
      4198      4196      4199      4200      4199      4200      4202      4203
      4199      4200      4202      4204      4199      4200      4202      4248
      4200      4202      4248      4249      4200      4202      4248      4250
      4200      4202      4248      4251      4201      4200      4202      4203
      4201      4200      4202      4204      4201      4200      4202      4248
      4202      4248      4251      4252      4202      4248      4251      4253
      4202      4248      4251      4254      4203      4202      4248      4249
      4203      4202      4248      4250      4203      4202      4248      4251
      4204      4202      4248      4249      4204      4202      4248      4250
      4204      4202      4248      4251      4205      4208      4211      4212
      4205      4208      4211      4213      4205      4208      4211      4214
      4206      4205      4208      4209      4206      4205      4208      4210
      4206      4205      4208      4211      4207      4205      4208      4209
      4207      4205      4208      4210      4207      4205      4208      4211
      4208      4211      4214      4215      4208      4211      4214      4216
      4208      4211      4214      4217      4209      4208      4211      4212
      4209      4208      4211      4213      4209      4208      4211      4214
      4210      4208      4211      4212      4210      4208      4211      4213
      4210      4208      4211      4214      4211      4214      4217      4218
      4211      4214      4217      4219      4211      4214      4217      4220
      4212      4211      4214      4215      4212      4211      4214      4216
      4212      4211      4214      4217      4213      4211      4214      4215
      4213      4211      4214      4216      4213      4211      4214      4217
      4214      4217      4220      4221      4214      4217      4220      4222
      4214      4217      4220      4223      4215      4214      4217      4218
      4215      4214      4217      4219      4215      4214      4217      4220
      4216      4214      4217      4218      4216      4214      4217      4219
      4216      4214      4217      4220      4217      4220      4223      4224
      4217      4220      4223      4225      4217      4220      4223      4226
      4218      4217      4220      4221      4218      4217      4220      4222
      4218      4217      4220      4223      4219      4217      4220      4221
      4219      4217      4220      4222      4219      4217      4220      4223
      4220      4223      4226      4227      4220      4223      4226      4228
      4220      4223      4226      4229      4221      4220      4223      4224
      4221      4220      4223      4225      4221      4220      4223      4226
      4222      4220      4223      4224      4222      4220      4223      4225
      4222      4220      4223      4226      4223      4226      4229      4230
      4223      4226      4229      4231      4223      4226      4229      4232
      4224      4223      4226      4227      4224      4223      4226      4228
      4224      4223      4226      4229      4225      4223      4226      4227
      4225      4223      4226      4228      4225      4223      4226      4229
      4226      4229      4232      4233      4226      4229      4232      4234
      4226      4229      4232      4235      4227      4226      4229      4230
      4227      4226      4229      4231      4227      4226      4229      4232
      4228      4226      4229      4230      4228      4226      4229      4231
      4228      4226      4229      4232      4229      4232      4235      4236
      4229      4232      4235      4237      4229      4232      4235      4238
      4230      4229      4232      4233      4230      4229      4232      4234
      4230      4229      4232      4235      4231      4229      4232      4233
      4231      4229      4232      4234      4231      4229      4232      4235
      4232      4235      4238      4239      4232      4235      4238      4240
      4232      4235      4238      4241      4233      4232      4235      4236
      4233      4232      4235      4237      4233      4232      4235      4238
      4234      4232      4235      4236      4234      4232      4235      4237
      4234      4232      4235      4238      4235      4238      4241      4242
      4235      4238      4241      4243      4235      4238      4241      4244
      4236      4235      4238      4239      4236      4235      4238      4240
      4236      4235      4238      4241      4237      4235      4238      4239
      4237      4235      4238      4240      4237      4235      4238      4241
      4238      4241      4244      4245      4238      4241      4244      4246
      4238      4241      4244      4247      4239      4238      4241      4242
      4239      4238      4241      4243      4239      4238      4241      4244
      4240      4238      4241      4242      4240      4238      4241      4243
      4240      4238      4241      4244      4242      4241      4244      4245
      4242      4241      4244      4246      4242      4241      4244      4247
      4243      4241      4244      4245      4243      4241      4244      4246
      4243      4241      4244      4247      4248      4251      4254      4255
      4248      4251      4254      4256      4248      4251      4254      4257
      4249      4248      4251      4252      4249      4248      4251      4253
      4249      4248      4251      4254      4250      4248      4251      4252
      4250      4248      4251      4253      4250      4248      4251      4254
      4251      4254      4257      4258      4251      4254      4257      4259
      4251      4254      4257      4260      4252      4251      4254      4255
      4252      4251      4254      4256      4252      4251      4254      4257
      4253      4251      4254      4255      4253      4251      4254      4256
      4253      4251      4254      4257      4254      4257      4260      4261
      4254      4257      4260      4262      4254      4257      4260      4263
      4255      4254      4257      4258      4255      4254      4257      4259
      4255      4254      4257      4260      4256      4254      4257      4258
      4256      4254      4257      4259      4256      4254      4257      4260
      4257      4260      4263      4264      4257      4260      4263      4265
      4257      4260      4263      4266      4258      4257      4260      4261
      4258      4257      4260      4262      4258      4257      4260      4263
      4259      4257      4260      4261      4259      4257      4260      4262
      4259      4257      4260      4263      4260      4263      4266      4267
      4260      4263      4266      4268      4260      4263      4266      4269
      4261      4260      4263      4264      4261      4260      4263      4265
      4261      4260      4263      4266      4262      4260      4263      4264
      4262      4260      4263      4265      4262      4260      4263      4266
      4263      4266      4269      4270      4263      4266      4269      4271
      4263      4266      4269      4272      4264      4263      4266      4267
      4264      4263      4266      4268      4264      4263      4266      4269
      4265      4263      4266      4267      4265      4263      4266      4268
      4265      4263      4266      4269      4266      4269      4272      4273
      4266      4269      4272      4274      4266      4269      4272      4275
      4267      4266      4269      4270      4267      4266      4269      4271
      4267      4266      4269      4272      4268      4266      4269      4270
      4268      4266      4269      4271      4268      4266      4269      4272
      4269      4272      4275      4276      4269      4272      4275      4277
      4269      4272      4275      4278      4270      4269      4272      4273
      4270      4269      4272      4274      4270      4269      4272      4275
      4271      4269      4272      4273      4271      4269      4272      4274
      4271      4269      4272      4275      4272      4275      4278      4279
      4272      4275      4278      4280      4272      4275      4278      4281
      4273      4272      4275      4276      4273      4272      4275      4277
      4273      4272      4275      4278      4274      4272      4275      4276
      4274      4272      4275      4277      4274      4272      4275      4278
      4275      4278      4281      4282      4275      4278      4281      4283
      4275      4278      4281      4284      4276      4275      4278      4279
      4276      4275      4278      4280      4276      4275      4278      4281
      4277      4275      4278      4279      4277      4275      4278      4280
      4277      4275      4278      4281      4278      4281      4284      4285
      4278      4281      4284      4286      4278      4281      4284      4287
      4279      4278      4281      4282      4279      4278      4281      4283
      4279      4278      4281      4284      4280      4278      4281      4282
      4280      4278      4281      4283      4280      4278      4281      4284
      4281      4284      4287      4288      4281      4284      4287      4289
      4281      4284      4287      4290      4282      4281      4284      4285
      4282      4281      4284      4286      4282      4281      4284      4287
      4283      4281      4284      4285      4283      4281      4284      4286
      4283      4281      4284      4287      4285      4284      4287      4288
      4285      4284      4287      4289      4285      4284      4287      4290
      4286      4284      4287      4288      4286      4284      4287      4289
      4286      4284      4287      4290      4291      4304      4307      4308
      4291      4304      4307      4309      4291      4304      4307      4314
      4292      4291      4296      4297      4292      4291      4296      4298
      4292      4291      4296      4299      4292      4291      4300      4301
      4292      4291      4300      4302      4292      4291      4300      4303
      4292      4291      4304      4305      4292      4291      4304      4306
      4292      4291      4304      4307      4293      4292      4291      4296
      4293      4292      4291      4300      4293      4292      4291      4304
      4294      4292      4291      4296      4294      4292      4291      4300
      4294      4292      4291      4304      4295      4292      4291      4296
      4295      4292      4291      4300      4295      4292      4291      4304
      4296      4291      4300      4301      4296      4291      4300      4302
      4296      4291      4300      4303      4296      4291      4304      4305
      4296      4291      4304      4306      4296      4291      4304      4307
      4297      4296      4291      4300      4297      4296      4291      4304
      4298      4296      4291      4300      4298      4296      4291      4304
      4299      4296      4291      4300      4299      4296      4291      4304
      4300      4291      4304      4305      4300      4291      4304      4306
      4300      4291      4304      4307      4301      4300      4291      4304
      4302      4300      4291      4304      4303      4300      4291      4304
      4304      4307      4314      4310      4305      4304      4307      4308
      4305      4304      4307      4309      4305      4304      4307      4314
      4306      4304      4307      4308      4306      4304      4307      4309
      4306      4304      4307      4314      4307      4314      4310      4311
      4307      4314      4310      4312      4307      4314      4310      4313
      4308      4307      4314      4310      4309      4307      4314      4310
      4310      4313      4315      4316      4310      4313      4315      4317
      4310      4313      4315      4318      4311      4310      4313      4315
      4312      4310      4313      4315      4313      4315      4318      4319
      4313      4315      4318      4320      4313      4315      4318      4326
      4314      4310      4313      4315      4315      4318      4320      4321
      4315      4318      4326      4327      4315      4318      4326      4328
      4315      4318      4326      4329      4316      4315      4318      4319
      4316      4315      4318      4320      4316      4315      4318      4326
      4317      4315      4318      4319      4317      4315      4318      4320
      4317      4315      4318      4326      4318      4320      4321      4322
      4318      4320      4321      4323      4318      4326      4329      4330
      4319      4318      4320      4321      4319      4318      4326      4327
      4319      4318      4326      4328      4319      4318      4326      4329
      4320      4318      4326      4327      4320      4318      4326      4328
      4320      4318      4326      4329      4320      4321      4323      4324
      4320      4321      4323      4325      4320      4321      4323      4335
      4321      4320      4318      4326      4321      4323      4335      4336
      4321      4323      4335      4337      4321      4323      4335      4338
      4322      4321      4323      4324      4322      4321      4323      4325
      4322      4321      4323      4335      4323      4335      4338      4339
      4323      4335      4338      4340      4323      4335      4338      4341
      4324      4323      4335      4336      4324      4323      4335      4337
      4324      4323      4335      4338      4325      4323      4335      4336
      4325      4323      4335      4337      4325      4323      4335      4338
      4326      4329      4330      4331      4326      4329      4330      4332
      4327      4326      4329      4330      4328      4326      4329      4330
      4329      4330      4332      4333      4329      4330      4332      4334
      4329      4330      4332      4378      4330      4332      4378      4379
      4330      4332      4378      4380      4330      4332      4378      4381
      4331      4330      4332      4333      4331      4330      4332      4334
      4331      4330      4332      4378      4332      4378      4381      4382
      4332      4378      4381      4383      4332      4378      4381      4384
      4333      4332      4378      4379      4333      4332      4378      4380
      4333      4332      4378      4381      4334      4332      4378      4379
      4334      4332      4378      4380      4334      4332      4378      4381
      4335      4338      4341      4342      4335      4338      4341      4343
      4335      4338      4341      4344      4336      4335      4338      4339
      4336      4335      4338      4340      4336      4335      4338      4341
      4337      4335      4338      4339      4337      4335      4338      4340
      4337      4335      4338      4341      4338      4341      4344      4345
      4338      4341      4344      4346      4338      4341      4344      4347
      4339      4338      4341      4342      4339      4338      4341      4343
      4339      4338      4341      4344      4340      4338      4341      4342
      4340      4338      4341      4343      4340      4338      4341      4344
      4341      4344      4347      4348      4341      4344      4347      4349
      4341      4344      4347      4350      4342      4341      4344      4345
      4342      4341      4344      4346      4342      4341      4344      4347
      4343      4341      4344      4345      4343      4341      4344      4346
      4343      4341      4344      4347      4344      4347      4350      4351
      4344      4347      4350      4352      4344      4347      4350      4353
      4345      4344      4347      4348      4345      4344      4347      4349
      4345      4344      4347      4350      4346      4344      4347      4348
      4346      4344      4347      4349      4346      4344      4347      4350
      4347      4350      4353      4354      4347      4350      4353      4355
      4347      4350      4353      4356      4348      4347      4350      4351
      4348      4347      4350      4352      4348      4347      4350      4353
      4349      4347      4350      4351      4349      4347      4350      4352
      4349      4347      4350      4353      4350      4353      4356      4357
      4350      4353      4356      4358      4350      4353      4356      4359
      4351      4350      4353      4354      4351      4350      4353      4355
      4351      4350      4353      4356      4352      4350      4353      4354
      4352      4350      4353      4355      4352      4350      4353      4356
      4353      4356      4359      4360      4353      4356      4359      4361
      4353      4356      4359      4362      4354      4353      4356      4357
      4354      4353      4356      4358      4354      4353      4356      4359
      4355      4353      4356      4357      4355      4353      4356      4358
      4355      4353      4356      4359      4356      4359      4362      4363
      4356      4359      4362      4364      4356      4359      4362      4365
      4357      4356      4359      4360      4357      4356      4359      4361
      4357      4356      4359      4362      4358      4356      4359      4360
      4358      4356      4359      4361      4358      4356      4359      4362
      4359      4362      4365      4366      4359      4362      4365      4367
      4359      4362      4365      4368      4360      4359      4362      4363
      4360      4359      4362      4364      4360      4359      4362      4365
      4361      4359      4362      4363      4361      4359      4362      4364
      4361      4359      4362      4365      4362      4365      4368      4369
      4362      4365      4368      4370      4362      4365      4368      4371
      4363      4362      4365      4366      4363      4362      4365      4367
      4363      4362      4365      4368      4364      4362      4365      4366
      4364      4362      4365      4367      4364      4362      4365      4368
      4365      4368      4371      4372      4365      4368      4371      4373
      4365      4368      4371      4374      4366      4365      4368      4369
      4366      4365      4368      4370      4366      4365      4368      4371
      4367      4365      4368      4369      4367      4365      4368      4370
      4367      4365      4368      4371      4368      4371      4374      4375
      4368      4371      4374      4376      4368      4371      4374      4377
      4369      4368      4371      4372      4369      4368      4371      4373
      4369      4368      4371      4374      4370      4368      4371      4372
      4370      4368      4371      4373      4370      4368      4371      4374
      4372      4371      4374      4375      4372      4371      4374      4376
      4372      4371      4374      4377      4373      4371      4374      4375
      4373      4371      4374      4376      4373      4371      4374      4377
      4378      4381      4384      4385      4378      4381      4384      4386
      4378      4381      4384      4387      4379      4378      4381      4382
      4379      4378      4381      4383      4379      4378      4381      4384
      4380      4378      4381      4382      4380      4378      4381      4383
      4380      4378      4381      4384      4381      4384      4387      4388
      4381      4384      4387      4389      4381      4384      4387      4390
      4382      4381      4384      4385      4382      4381      4384      4386
      4382      4381      4384      4387      4383      4381      4384      4385
      4383      4381      4384      4386      4383      4381      4384      4387
      4384      4387      4390      4391      4384      4387      4390      4392
      4384      4387      4390      4393      4385      4384      4387      4388
      4385      4384      4387      4389      4385      4384      4387      4390
      4386      4384      4387      4388      4386      4384      4387      4389
      4386      4384      4387      4390      4387      4390      4393      4394
      4387      4390      4393      4395      4387      4390      4393      4396
      4388      4387      4390      4391      4388      4387      4390      4392
      4388      4387      4390      4393      4389      4387      4390      4391
      4389      4387      4390      4392      4389      4387      4390      4393
      4390      4393      4396      4397      4390      4393      4396      4398
      4390      4393      4396      4399      4391      4390      4393      4394
      4391      4390      4393      4395      4391      4390      4393      4396
      4392      4390      4393      4394      4392      4390      4393      4395
      4392      4390      4393      4396      4393      4396      4399      4400
      4393      4396      4399      4401      4393      4396      4399      4402
      4394      4393      4396      4397      4394      4393      4396      4398
      4394      4393      4396      4399      4395      4393      4396      4397
      4395      4393      4396      4398      4395      4393      4396      4399
      4396      4399      4402      4403      4396      4399      4402      4404
      4396      4399      4402      4405      4397      4396      4399      4400
      4397      4396      4399      4401      4397      4396      4399      4402
      4398      4396      4399      4400      4398      4396      4399      4401
      4398      4396      4399      4402      4399      4402      4405      4406
      4399      4402      4405      4407      4399      4402      4405      4408
      4400      4399      4402      4403      4400      4399      4402      4404
      4400      4399      4402      4405      4401      4399      4402      4403
      4401      4399      4402      4404      4401      4399      4402      4405
      4402      4405      4408      4409      4402      4405      4408      4410
      4402      4405      4408      4411      4403      4402      4405      4406
      4403      4402      4405      4407      4403      4402      4405      4408
      4404      4402      4405      4406      4404      4402      4405      4407
      4404      4402      4405      4408      4405      4408      4411      4412
      4405      4408      4411      4413      4405      4408      4411      4414
      4406      4405      4408      4409      4406      4405      4408      4410
      4406      4405      4408      4411      4407      4405      4408      4409
      4407      4405      4408      4410      4407      4405      4408      4411
      4408      4411      4414      4415      4408      4411      4414      4416
      4408      4411      4414      4417      4409      4408      4411      4412
      4409      4408      4411      4413      4409      4408      4411      4414
      4410      4408      4411      4412      4410      4408      4411      4413
      4410      4408      4411      4414      4411      4414      4417      4418
      4411      4414      4417      4419      4411      4414      4417      4420
      4412      4411      4414      4415      4412      4411      4414      4416
      4412      4411      4414      4417      4413      4411      4414      4415
      4413      4411      4414      4416      4413      4411      4414      4417
      4415      4414      4417      4418      4415      4414      4417      4419
      4415      4414      4417      4420      4416      4414      4417      4418
      4416      4414      4417      4419      4416      4414      4417      4420
      4421      4434      4437      4438      4421      4434      4437      4439
      4421      4434      4437      4444      4422      4421      4426      4427
      4422      4421      4426      4428      4422      4421      4426      4429
      4422      4421      4430      4431      4422      4421      4430      4432
      4422      4421      4430      4433      4422      4421      4434      4435
      4422      4421      4434      4436      4422      4421      4434      4437
      4423      4422      4421      4426      4423      4422      4421      4430
      4423      4422      4421      4434      4424      4422      4421      4426
      4424      4422      4421      4430      4424      4422      4421      4434
      4425      4422      4421      4426      4425      4422      4421      4430
      4425      4422      4421      4434      4426      4421      4430      4431
      4426      4421      4430      4432      4426      4421      4430      4433
      4426      4421      4434      4435      4426      4421      4434      4436
      4426      4421      4434      4437      4427      4426      4421      4430
      4427      4426      4421      4434      4428      4426      4421      4430
      4428      4426      4421      4434      4429      4426      4421      4430
      4429      4426      4421      4434      4430      4421      4434      4435
      4430      4421      4434      4436      4430      4421      4434      4437
      4431      4430      4421      4434      4432      4430      4421      4434
      4433      4430      4421      4434      4434      4437      4444      4440
      4435      4434      4437      4438      4435      4434      4437      4439
      4435      4434      4437      4444      4436      4434      4437      4438
      4436      4434      4437      4439      4436      4434      4437      4444
      4437      4444      4440      4441      4437      4444      4440      4442
      4437      4444      4440      4443      4438      4437      4444      4440
      4439      4437      4444      4440      4440      4443      4445      4446
      4440      4443      4445      4447      4440      4443      4445      4448
      4441      4440      4443      4445      4442      4440      4443      4445
      4443      4445      4448      4449      4443      4445      4448      4450
      4443      4445      4448      4456      4444      4440      4443      4445
      4445      4448      4450      4451      4445      4448      4456      4457
      4445      4448      4456      4458      4445      4448      4456      4459
      4446      4445      4448      4449      4446      4445      4448      4450
      4446      4445      4448      4456      4447      4445      4448      4449
      4447      4445      4448      4450      4447      4445      4448      4456
      4448      4450      4451      4452      4448      4450      4451      4453
      4448      4456      4459      4460      4449      4448      4450      4451
      4449      4448      4456      4457      4449      4448      4456      4458
      4449      4448      4456      4459      4450      4448      4456      4457
      4450      4448      4456      4458      4450      4448      4456      4459
      4450      4451      4453      4454      4450      4451      4453      4455
      4450      4451      4453      4465      4451      4450      4448      4456
      4451      4453      4465      4466      4451      4453      4465      4467
      4451      4453      4465      4468      4452      4451      4453      4454
      4452      4451      4453      4455      4452      4451      4453      4465
      4453      4465      4468      4469      4453      4465      4468      4470
      4453      4465      4468      4471      4454      4453      4465      4466
      4454      4453      4465      4467      4454      4453      4465      4468
      4455      4453      4465      4466      4455      4453      4465      4467
      4455      4453      4465      4468      4456      4459      4460      4461
      4456      4459      4460      4462      4457      4456      4459      4460
      4458      4456      4459      4460      4459      4460      4462      4463
      4459      4460      4462      4464      4459      4460      4462      4508
      4460      4462      4508      4509      4460      4462      4508      4510
      4460      4462      4508      4511      4461      4460      4462      4463
      4461      4460      4462      4464      4461      4460      4462      4508
      4462      4508      4511      4512      4462      4508      4511      4513
      4462      4508      4511      4514      4463      4462      4508      4509
      4463      4462      4508      4510      4463      4462      4508      4511
      4464      4462      4508      4509      4464      4462      4508      4510
      4464      4462      4508      4511      4465      4468      4471      4472
      4465      4468      4471      4473      4465      4468      4471      4474
      4466      4465      4468      4469      4466      4465      4468      4470
      4466      4465      4468      4471      4467      4465      4468      4469
      4467      4465      4468      4470      4467      4465      4468      4471
      4468      4471      4474      4475      4468      4471      4474      4476
      4468      4471      4474      4477      4469      4468      4471      4472
      4469      4468      4471      4473      4469      4468      4471      4474
      4470      4468      4471      4472      4470      4468      4471      4473
      4470      4468      4471      4474      4471      4474      4477      4478
      4471      4474      4477      4479      4471      4474      4477      4480
      4472      4471      4474      4475      4472      4471      4474      4476
      4472      4471      4474      4477      4473      4471      4474      4475
      4473      4471      4474      4476      4473      4471      4474      4477
      4474      4477      4480      4481      4474      4477      4480      4482
      4474      4477      4480      4483      4475      4474      4477      4478
      4475      4474      4477      4479      4475      4474      4477      4480
      4476      4474      4477      4478      4476      4474      4477      4479
      4476      4474      4477      4480      4477      4480      4483      4484
      4477      4480      4483      4485      4477      4480      4483      4486
      4478      4477      4480      4481      4478      4477      4480      4482
      4478      4477      4480      4483      4479      4477      4480      4481
      4479      4477      4480      4482      4479      4477      4480      4483
      4480      4483      4486      4487      4480      4483      4486      4488
      4480      4483      4486      4489      4481      4480      4483      4484
      4481      4480      4483      4485      4481      4480      4483      4486
      4482      4480      4483      4484      4482      4480      4483      4485
      4482      4480      4483      4486      4483      4486      4489      4490
      4483      4486      4489      4491      4483      4486      4489      4492
      4484      4483      4486      4487      4484      4483      4486      4488
      4484      4483      4486      4489      4485      4483      4486      4487
      4485      4483      4486      4488      4485      4483      4486      4489
      4486      4489      4492      4493      4486      4489      4492      4494
      4486      4489      4492      4495      4487      4486      4489      4490
      4487      4486      4489      4491      4487      4486      4489      4492
      4488      4486      4489      4490      4488      4486      4489      4491
      4488      4486      4489      4492      4489      4492      4495      4496
      4489      4492      4495      4497      4489      4492      4495      4498
      4490      4489      4492      4493      4490      4489      4492      4494
      4490      4489      4492      4495      4491      4489      4492      4493
      4491      4489      4492      4494      4491      4489      4492      4495
      4492      4495      4498      4499      4492      4495      4498      4500
      4492      4495      4498      4501      4493      4492      4495      4496
      4493      4492      4495      4497      4493      4492      4495      4498
      4494      4492      4495      4496      4494      4492      4495      4497
      4494      4492      4495      4498      4495      4498      4501      4502
      4495      4498      4501      4503      4495      4498      4501      4504
      4496      4495      4498      4499      4496      4495      4498      4500
      4496      4495      4498      4501      4497      4495      4498      4499
      4497      4495      4498      4500      4497      4495      4498      4501
      4498      4501      4504      4505      4498      4501      4504      4506
      4498      4501      4504      4507      4499      4498      4501      4502
      4499      4498      4501      4503      4499      4498      4501      4504
      4500      4498      4501      4502      4500      4498      4501      4503
      4500      4498      4501      4504      4502      4501      4504      4505
      4502      4501      4504      4506      4502      4501      4504      4507
      4503      4501      4504      4505      4503      4501      4504      4506
      4503      4501      4504      4507      4508      4511      4514      4515
      4508      4511      4514      4516      4508      4511      4514      4517
      4509      4508      4511      4512      4509      4508      4511      4513
      4509      4508      4511      4514      4510      4508      4511      4512
      4510      4508      4511      4513      4510      4508      4511      4514
      4511      4514      4517      4518      4511      4514      4517      4519
      4511      4514      4517      4520      4512      4511      4514      4515
      4512      4511      4514      4516      4512      4511      4514      4517
      4513      4511      4514      4515      4513      4511      4514      4516
      4513      4511      4514      4517      4514      4517      4520      4521
      4514      4517      4520      4522      4514      4517      4520      4523
      4515      4514      4517      4518      4515      4514      4517      4519
      4515      4514      4517      4520      4516      4514      4517      4518
      4516      4514      4517      4519      4516      4514      4517      4520
      4517      4520      4523      4524      4517      4520      4523      4525
      4517      4520      4523      4526      4518      4517      4520      4521
      4518      4517      4520      4522      4518      4517      4520      4523
      4519      4517      4520      4521      4519      4517      4520      4522
      4519      4517      4520      4523      4520      4523      4526      4527
      4520      4523      4526      4528      4520      4523      4526      4529
      4521      4520      4523      4524      4521      4520      4523      4525
      4521      4520      4523      4526      4522      4520      4523      4524
      4522      4520      4523      4525      4522      4520      4523      4526
      4523      4526      4529      4530      4523      4526      4529      4531
      4523      4526      4529      4532      4524      4523      4526      4527
      4524      4523      4526      4528      4524      4523      4526      4529
      4525      4523      4526      4527      4525      4523      4526      4528
      4525      4523      4526      4529      4526      4529      4532      4533
      4526      4529      4532      4534      4526      4529      4532      4535
      4527      4526      4529      4530      4527      4526      4529      4531
      4527      4526      4529      4532      4528      4526      4529      4530
      4528      4526      4529      4531      4528      4526      4529      4532
      4529      4532      4535      4536      4529      4532      4535      4537
      4529      4532      4535      4538      4530      4529      4532      4533
      4530      4529      4532      4534      4530      4529      4532      4535
      4531      4529      4532      4533      4531      4529      4532      4534
      4531      4529      4532      4535      4532      4535      4538      4539
      4532      4535      4538      4540      4532      4535      4538      4541
      4533      4532      4535      4536      4533      4532      4535      4537
      4533      4532      4535      4538      4534      4532      4535      4536
      4534      4532      4535      4537      4534      4532      4535      4538
      4535      4538      4541      4542      4535      4538      4541      4543
      4535      4538      4541      4544      4536      4535      4538      4539
      4536      4535      4538      4540      4536      4535      4538      4541
      4537      4535      4538      4539      4537      4535      4538      4540
      4537      4535      4538      4541      4538      4541      4544      4545
      4538      4541      4544      4546      4538      4541      4544      4547
      4539      4538      4541      4542      4539      4538      4541      4543
      4539      4538      4541      4544      4540      4538      4541      4542
      4540      4538      4541      4543      4540      4538      4541      4544
      4541      4544      4547      4548      4541      4544      4547      4549
      4541      4544      4547      4550      4542      4541      4544      4545
      4542      4541      4544      4546      4542      4541      4544      4547
      4543      4541      4544      4545      4543      4541      4544      4546
      4543      4541      4544      4547      4545      4544      4547      4548
      4545      4544      4547      4549      4545      4544      4547      4550
      4546      4544      4547      4548      4546      4544      4547      4549
      4546      4544      4547      4550      4551      4564      4567      4568
      4551      4564      4567      4569      4551      4564      4567      4574
      4552      4551      4556      4557      4552      4551      4556      4558
      4552      4551      4556      4559      4552      4551      4560      4561
      4552      4551      4560      4562      4552      4551      4560      4563
      4552      4551      4564      4565      4552      4551      4564      4566
      4552      4551      4564      4567      4553      4552      4551      4556
      4553      4552      4551      4560      4553      4552      4551      4564
      4554      4552      4551      4556      4554      4552      4551      4560
      4554      4552      4551      4564      4555      4552      4551      4556
      4555      4552      4551      4560      4555      4552      4551      4564
      4556      4551      4560      4561      4556      4551      4560      4562
      4556      4551      4560      4563      4556      4551      4564      4565
      4556      4551      4564      4566      4556      4551      4564      4567
      4557      4556      4551      4560      4557      4556      4551      4564
      4558      4556      4551      4560      4558      4556      4551      4564
      4559      4556      4551      4560      4559      4556      4551      4564
      4560      4551      4564      4565      4560      4551      4564      4566
      4560      4551      4564      4567      4561      4560      4551      4564
      4562      4560      4551      4564      4563      4560      4551      4564
      4564      4567      4574      4570      4565      4564      4567      4568
      4565      4564      4567      4569      4565      4564      4567      4574
      4566      4564      4567      4568      4566      4564      4567      4569
      4566      4564      4567      4574      4567      4574      4570      4571
      4567      4574      4570      4572      4567      4574      4570      4573
      4568      4567      4574      4570      4569      4567      4574      4570
      4570      4573      4575      4576      4570      4573      4575      4577
      4570      4573      4575      4578      4571      4570      4573      4575
      4572      4570      4573      4575      4573      4575      4578      4579
      4573      4575      4578      4580      4573      4575      4578      4586
      4574      4570      4573      4575      4575      4578      4580      4581
      4575      4578      4586      4587      4575      4578      4586      4588
      4575      4578      4586      4589      4576      4575      4578      4579
      4576      4575      4578      4580      4576      4575      4578      4586
      4577      4575      4578      4579      4577      4575      4578      4580
      4577      4575      4578      4586      4578      4580      4581      4582
      4578      4580      4581      4583      4578      4586      4589      4590
      4579      4578      4580      4581      4579      4578      4586      4587
      4579      4578      4586      4588      4579      4578      4586      4589
      4580      4578      4586      4587      4580      4578      4586      4588
      4580      4578      4586      4589      4580      4581      4583      4584
      4580      4581      4583      4585      4580      4581      4583      4595
      4581      4580      4578      4586      4581      4583      4595      4596
      4581      4583      4595      4597      4581      4583      4595      4598
      4582      4581      4583      4584      4582      4581      4583      4585
      4582      4581      4583      4595      4583      4595      4598      4599
      4583      4595      4598      4600      4583      4595      4598      4601
      4584      4583      4595      4596      4584      4583      4595      4597
      4584      4583      4595      4598      4585      4583      4595      4596
      4585      4583      4595      4597      4585      4583      4595      4598
      4586      4589      4590      4591      4586      4589      4590      4592
      4587      4586      4589      4590      4588      4586      4589      4590
      4589      4590      4592      4593      4589      4590      4592      4594
      4589      4590      4592      4638      4590      4592      4638      4639
      4590      4592      4638      4640      4590      4592      4638      4641
      4591      4590      4592      4593      4591      4590      4592      4594
      4591      4590      4592      4638      4592      4638      4641      4642
      4592      4638      4641      4643      4592      4638      4641      4644
      4593      4592      4638      4639      4593      4592      4638      4640
      4593      4592      4638      4641      4594      4592      4638      4639
      4594      4592      4638      4640      4594      4592      4638      4641
      4595      4598      4601      4602      4595      4598      4601      4603
      4595      4598      4601      4604      4596      4595      4598      4599
      4596      4595      4598      4600      4596      4595      4598      4601
      4597      4595      4598      4599      4597      4595      4598      4600
      4597      4595      4598      4601      4598      4601      4604      4605
      4598      4601      4604      4606      4598      4601      4604      4607
      4599      4598      4601      4602      4599      4598      4601      4603
      4599      4598      4601      4604      4600      4598      4601      4602
      4600      4598      4601      4603      4600      4598      4601      4604
      4601      4604      4607      4608      4601      4604      4607      4609
      4601      4604      4607      4610      4602      4601      4604      4605
      4602      4601      4604      4606      4602      4601      4604      4607
      4603      4601      4604      4605      4603      4601      4604      4606
      4603      4601      4604      4607      4604      4607      4610      4611
      4604      4607      4610      4612      4604      4607      4610      4613
      4605      4604      4607      4608      4605      4604      4607      4609
      4605      4604      4607      4610      4606      4604      4607      4608
      4606      4604      4607      4609      4606      4604      4607      4610
      4607      4610      4613      4614      4607      4610      4613      4615
      4607      4610      4613      4616      4608      4607      4610      4611
      4608      4607      4610      4612      4608      4607      4610      4613
      4609      4607      4610      4611      4609      4607      4610      4612
      4609      4607      4610      4613      4610      4613      4616      4617
      4610      4613      4616      4618      4610      4613      4616      4619
      4611      4610      4613      4614      4611      4610      4613      4615
      4611      4610      4613      4616      4612      4610      4613      4614
      4612      4610      4613      4615      4612      4610      4613      4616
      4613      4616      4619      4620      4613      4616      4619      4621
      4613      4616      4619      4622      4614      4613      4616      4617
      4614      4613      4616      4618      4614      4613      4616      4619
      4615      4613      4616      4617      4615      4613      4616      4618
      4615      4613      4616      4619      4616      4619      4622      4623
      4616      4619      4622      4624      4616      4619      4622      4625
      4617      4616      4619      4620      4617      4616      4619      4621
      4617      4616      4619      4622      4618      4616      4619      4620
      4618      4616      4619      4621      4618      4616      4619      4622
      4619      4622      4625      4626      4619      4622      4625      4627
      4619      4622      4625      4628      4620      4619      4622      4623
      4620      4619      4622      4624      4620      4619      4622      4625
      4621      4619      4622      4623      4621      4619      4622      4624
      4621      4619      4622      4625      4622      4625      4628      4629
      4622      4625      4628      4630      4622      4625      4628      4631
      4623      4622      4625      4626      4623      4622      4625      4627
      4623      4622      4625      4628      4624      4622      4625      4626
      4624      4622      4625      4627      4624      4622      4625      4628
      4625      4628      4631      4632      4625      4628      4631      4633
      4625      4628      4631      4634      4626      4625      4628      4629
      4626      4625      4628      4630      4626      4625      4628      4631
      4627      4625      4628      4629      4627      4625      4628      4630
      4627      4625      4628      4631      4628      4631      4634      4635
      4628      4631      4634      4636      4628      4631      4634      4637
      4629      4628      4631      4632      4629      4628      4631      4633
      4629      4628      4631      4634      4630      4628      4631      4632
      4630      4628      4631      4633      4630      4628      4631      4634
      4632      4631      4634      4635      4632      4631      4634      4636
      4632      4631      4634      4637      4633      4631      4634      4635
      4633      4631      4634      4636      4633      4631      4634      4637
      4638      4641      4644      4645      4638      4641      4644      4646
      4638      4641      4644      4647      4639      4638      4641      4642
      4639      4638      4641      4643      4639      4638      4641      4644
      4640      4638      4641      4642      4640      4638      4641      4643
      4640      4638      4641      4644      4641      4644      4647      4648
      4641      4644      4647      4649      4641      4644      4647      4650
      4642      4641      4644      4645      4642      4641      4644      4646
      4642      4641      4644      4647      4643      4641      4644      4645
      4643      4641      4644      4646      4643      4641      4644      4647
      4644      4647      4650      4651      4644      4647      4650      4652
      4644      4647      4650      4653      4645      4644      4647      4648
      4645      4644      4647      4649      4645      4644      4647      4650
      4646      4644      4647      4648      4646      4644      4647      4649
      4646      4644      4647      4650      4647      4650      4653      4654
      4647      4650      4653      4655      4647      4650      4653      4656
      4648      4647      4650      4651      4648      4647      4650      4652
      4648      4647      4650      4653      4649      4647      4650      4651
      4649      4647      4650      4652      4649      4647      4650      4653
      4650      4653      4656      4657      4650      4653      4656      4658
      4650      4653      4656      4659      4651      4650      4653      4654
      4651      4650      4653      4655      4651      4650      4653      4656
      4652      4650      4653      4654      4652      4650      4653      4655
      4652      4650      4653      4656      4653      4656      4659      4660
      4653      4656      4659      4661      4653      4656      4659      4662
      4654      4653      4656      4657      4654      4653      4656      4658
      4654      4653      4656      4659      4655      4653      4656      4657
      4655      4653      4656      4658      4655      4653      4656      4659
      4656      4659      4662      4663      4656      4659      4662      4664
      4656      4659      4662      4665      4657      4656      4659      4660
      4657      4656      4659      4661      4657      4656      4659      4662
      4658      4656      4659      4660      4658      4656      4659      4661
      4658      4656      4659      4662      4659      4662      4665      4666
      4659      4662      4665      4667      4659      4662      4665      4668
      4660      4659      4662      4663      4660      4659      4662      4664
      4660      4659      4662      4665      4661      4659      4662      4663
      4661      4659      4662      4664      4661      4659      4662      4665
      4662      4665      4668      4669      4662      4665      4668      4670
      4662      4665      4668      4671      4663      4662      4665      4666
      4663      4662      4665      4667      4663      4662      4665      4668
      4664      4662      4665      4666      4664      4662      4665      4667
      4664      4662      4665      4668      4665      4668      4671      4672
      4665      4668      4671      4673      4665      4668      4671      4674
      4666      4665      4668      4669      4666      4665      4668      4670
      4666      4665      4668      4671      4667      4665      4668      4669
      4667      4665      4668      4670      4667      4665      4668      4671
      4668      4671      4674      4675      4668      4671      4674      4676
      4668      4671      4674      4677      4669      4668      4671      4672
      4669      4668      4671      4673      4669      4668      4671      4674
      4670      4668      4671      4672      4670      4668      4671      4673
      4670      4668      4671      4674      4671      4674      4677      4678
      4671      4674      4677      4679      4671      4674      4677      4680
      4672      4671      4674      4675      4672      4671      4674      4676
      4672      4671      4674      4677      4673      4671      4674      4675
      4673      4671      4674      4676      4673      4671      4674      4677
      4675      4674      4677      4678      4675      4674      4677      4679
      4675      4674      4677      4680      4676      4674      4677      4678
      4676      4674      4677      4679      4676      4674      4677      4680
      4681      4694      4697      4698      4681      4694      4697      4699
      4681      4694      4697      4704      4682      4681      4686      4687
      4682      4681      4686      4688      4682      4681      4686      4689
      4682      4681      4690      4691      4682      4681      4690      4692
      4682      4681      4690      4693      4682      4681      4694      4695
      4682      4681      4694      4696      4682      4681      4694      4697
      4683      4682      4681      4686      4683      4682      4681      4690
      4683      4682      4681      4694      4684      4682      4681      4686
      4684      4682      4681      4690      4684      4682      4681      4694
      4685      4682      4681      4686      4685      4682      4681      4690
      4685      4682      4681      4694      4686      4681      4690      4691
      4686      4681      4690      4692      4686      4681      4690      4693
      4686      4681      4694      4695      4686      4681      4694      4696
      4686      4681      4694      4697      4687      4686      4681      4690
      4687      4686      4681      4694      4688      4686      4681      4690
      4688      4686      4681      4694      4689      4686      4681      4690
      4689      4686      4681      4694      4690      4681      4694      4695
      4690      4681      4694      4696      4690      4681      4694      4697
      4691      4690      4681      4694      4692      4690      4681      4694
      4693      4690      4681      4694      4694      4697      4704      4700
      4695      4694      4697      4698      4695      4694      4697      4699
      4695      4694      4697      4704      4696      4694      4697      4698
      4696      4694      4697      4699      4696      4694      4697      4704
      4697      4704      4700      4701      4697      4704      4700      4702
      4697      4704      4700      4703      4698      4697      4704      4700
      4699      4697      4704      4700      4700      4703      4705      4706
      4700      4703      4705      4707      4700      4703      4705      4708
      4701      4700      4703      4705      4702      4700      4703      4705
      4703      4705      4708      4709      4703      4705      4708      4710
      4703      4705      4708      4716      4704      4700      4703      4705
      4705      4708      4710      4711      4705      4708      4716      4717
      4705      4708      4716      4718      4705      4708      4716      4719
      4706      4705      4708      4709      4706      4705      4708      4710
      4706      4705      4708      4716      4707      4705      4708      4709
      4707      4705      4708      4710      4707      4705      4708      4716
      4708      4710      4711      4712      4708      4710      4711      4713
      4708      4716      4719      4720      4709      4708      4710      4711
      4709      4708      4716      4717      4709      4708      4716      4718
      4709      4708      4716      4719      4710      4708      4716      4717
      4710      4708      4716      4718      4710      4708      4716      4719
      4710      4711      4713      4714      4710      4711      4713      4715
      4710      4711      4713      4725      4711      4710      4708      4716
      4711      4713      4725      4726      4711      4713      4725      4727
      4711      4713      4725      4728      4712      4711      4713      4714
      4712      4711      4713      4715      4712      4711      4713      4725
      4713      4725      4728      4729      4713      4725      4728      4730
      4713      4725      4728      4731      4714      4713      4725      4726
      4714      4713      4725      4727      4714      4713      4725      4728
      4715      4713      4725      4726      4715      4713      4725      4727
      4715      4713      4725      4728      4716      4719      4720      4721
      4716      4719      4720      4722      4717      4716      4719      4720
      4718      4716      4719      4720      4719      4720      4722      4723
      4719      4720      4722      4724      4719      4720      4722      4768
      4720      4722      4768      4769      4720      4722      4768      4770
      4720      4722      4768      4771      4721      4720      4722      4723
      4721      4720      4722      4724      4721      4720      4722      4768
      4722      4768      4771      4772      4722      4768      4771      4773
      4722      4768      4771      4774      4723      4722      4768      4769
      4723      4722      4768      4770      4723      4722      4768      4771
      4724      4722      4768      4769      4724      4722      4768      4770
      4724      4722      4768      4771      4725      4728      4731      4732
      4725      4728      4731      4733      4725      4728      4731      4734
      4726      4725      4728      4729      4726      4725      4728      4730
      4726      4725      4728      4731      4727      4725      4728      4729
      4727      4725      4728      4730      4727      4725      4728      4731
      4728      4731      4734      4735      4728      4731      4734      4736
      4728      4731      4734      4737      4729      4728      4731      4732
      4729      4728      4731      4733      4729      4728      4731      4734
      4730      4728      4731      4732      4730      4728      4731      4733
      4730      4728      4731      4734      4731      4734      4737      4738
      4731      4734      4737      4739      4731      4734      4737      4740
      4732      4731      4734      4735      4732      4731      4734      4736
      4732      4731      4734      4737      4733      4731      4734      4735
      4733      4731      4734      4736      4733      4731      4734      4737
      4734      4737      4740      4741      4734      4737      4740      4742
      4734      4737      4740      4743      4735      4734      4737      4738
      4735      4734      4737      4739      4735      4734      4737      4740
      4736      4734      4737      4738      4736      4734      4737      4739
      4736      4734      4737      4740      4737      4740      4743      4744
      4737      4740      4743      4745      4737      4740      4743      4746
      4738      4737      4740      4741      4738      4737      4740      4742
      4738      4737      4740      4743      4739      4737      4740      4741
      4739      4737      4740      4742      4739      4737      4740      4743
      4740      4743      4746      4747      4740      4743      4746      4748
      4740      4743      4746      4749      4741      4740      4743      4744
      4741      4740      4743      4745      4741      4740      4743      4746
      4742      4740      4743      4744      4742      4740      4743      4745
      4742      4740      4743      4746      4743      4746      4749      4750
      4743      4746      4749      4751      4743      4746      4749      4752
      4744      4743      4746      4747      4744      4743      4746      4748
      4744      4743      4746      4749      4745      4743      4746      4747
      4745      4743      4746      4748      4745      4743      4746      4749
      4746      4749      4752      4753      4746      4749      4752      4754
      4746      4749      4752      4755      4747      4746      4749      4750
      4747      4746      4749      4751      4747      4746      4749      4752
      4748      4746      4749      4750      4748      4746      4749      4751
      4748      4746      4749      4752      4749      4752      4755      4756
      4749      4752      4755      4757      4749      4752      4755      4758
      4750      4749      4752      4753      4750      4749      4752      4754
      4750      4749      4752      4755      4751      4749      4752      4753
      4751      4749      4752      4754      4751      4749      4752      4755
      4752      4755      4758      4759      4752      4755      4758      4760
      4752      4755      4758      4761      4753      4752      4755      4756
      4753      4752      4755      4757      4753      4752      4755      4758
      4754      4752      4755      4756      4754      4752      4755      4757
      4754      4752      4755      4758      4755      4758      4761      4762
      4755      4758      4761      4763      4755      4758      4761      4764
      4756      4755      4758      4759      4756      4755      4758      4760
      4756      4755      4758      4761      4757      4755      4758      4759
      4757      4755      4758      4760      4757      4755      4758      4761
      4758      4761      4764      4765      4758      4761      4764      4766
      4758      4761      4764      4767      4759      4758      4761      4762
      4759      4758      4761      4763      4759      4758      4761      4764
      4760      4758      4761      4762      4760      4758      4761      4763
      4760      4758      4761      4764      4762      4761      4764      4765
      4762      4761      4764      4766      4762      4761      4764      4767
      4763      4761      4764      4765      4763      4761      4764      4766
      4763      4761      4764      4767      4768      4771      4774      4775
      4768      4771      4774      4776      4768      4771      4774      4777
      4769      4768      4771      4772      4769      4768      4771      4773
      4769      4768      4771      4774      4770      4768      4771      4772
      4770      4768      4771      4773      4770      4768      4771      4774
      4771      4774      4777      4778      4771      4774      4777      4779
      4771      4774      4777      4780      4772      4771      4774      4775
      4772      4771      4774      4776      4772      4771      4774      4777
      4773      4771      4774      4775      4773      4771      4774      4776
      4773      4771      4774      4777      4774      4777      4780      4781
      4774      4777      4780      4782      4774      4777      4780      4783
      4775      4774      4777      4778      4775      4774      4777      4779
      4775      4774      4777      4780      4776      4774      4777      4778
      4776      4774      4777      4779      4776      4774      4777      4780
      4777      4780      4783      4784      4777      4780      4783      4785
      4777      4780      4783      4786      4778      4777      4780      4781
      4778      4777      4780      4782      4778      4777      4780      4783
      4779      4777      4780      4781      4779      4777      4780      4782
      4779      4777      4780      4783      4780      4783      4786      4787
      4780      4783      4786      4788      4780      4783      4786      4789
      4781      4780      4783      4784      4781      4780      4783      4785
      4781      4780      4783      4786      4782      4780      4783      4784
      4782      4780      4783      4785      4782      4780      4783      4786
      4783      4786      4789      4790      4783      4786      4789      4791
      4783      4786      4789      4792      4784      4783      4786      4787
      4784      4783      4786      4788      4784      4783      4786      4789
      4785      4783      4786      4787      4785      4783      4786      4788
      4785      4783      4786      4789      4786      4789      4792      4793
      4786      4789      4792      4794      4786      4789      4792      4795
      4787      4786      4789      4790      4787      4786      4789      4791
      4787      4786      4789      4792      4788      4786      4789      4790
      4788      4786      4789      4791      4788      4786      4789      4792
      4789      4792      4795      4796      4789      4792      4795      4797
      4789      4792      4795      4798      4790      4789      4792      4793
      4790      4789      4792      4794      4790      4789      4792      4795
      4791      4789      4792      4793      4791      4789      4792      4794
      4791      4789      4792      4795      4792      4795      4798      4799
      4792      4795      4798      4800      4792      4795      4798      4801
      4793      4792      4795      4796      4793      4792      4795      4797
      4793      4792      4795      4798      4794      4792      4795      4796
      4794      4792      4795      4797      4794      4792      4795      4798
      4795      4798      4801      4802      4795      4798      4801      4803
      4795      4798      4801      4804      4796      4795      4798      4799
      4796      4795      4798      4800      4796      4795      4798      4801
      4797      4795      4798      4799      4797      4795      4798      4800
      4797      4795      4798      4801      4798      4801      4804      4805
      4798      4801      4804      4806      4798      4801      4804      4807
      4799      4798      4801      4802      4799      4798      4801      4803
      4799      4798      4801      4804      4800      4798      4801      4802
      4800      4798      4801      4803      4800      4798      4801      4804
      4801      4804      4807      4808      4801      4804      4807      4809
      4801      4804      4807      4810      4802      4801      4804      4805
      4802      4801      4804      4806      4802      4801      4804      4807
      4803      4801      4804      4805      4803      4801      4804      4806
      4803      4801      4804      4807      4805      4804      4807      4808
      4805      4804      4807      4809      4805      4804      4807      4810
      4806      4804      4807      4808      4806      4804      4807      4809
      4806      4804      4807      4810      4811      4824      4827      4828
      4811      4824      4827      4829      4811      4824      4827      4834
      4812      4811      4816      4817      4812      4811      4816      4818
      4812      4811      4816      4819      4812      4811      4820      4821
      4812      4811      4820      4822      4812      4811      4820      4823
      4812      4811      4824      4825      4812      4811      4824      4826
      4812      4811      4824      4827      4813      4812      4811      4816
      4813      4812      4811      4820      4813      4812      4811      4824
      4814      4812      4811      4816      4814      4812      4811      4820
      4814      4812      4811      4824      4815      4812      4811      4816
      4815      4812      4811      4820      4815      4812      4811      4824
      4816      4811      4820      4821      4816      4811      4820      4822
      4816      4811      4820      4823      4816      4811      4824      4825
      4816      4811      4824      4826      4816      4811      4824      4827
      4817      4816      4811      4820      4817      4816      4811      4824
      4818      4816      4811      4820      4818      4816      4811      4824
      4819      4816      4811      4820      4819      4816      4811      4824
      4820      4811      4824      4825      4820      4811      4824      4826
      4820      4811      4824      4827      4821      4820      4811      4824
      4822      4820      4811      4824      4823      4820      4811      4824
      4824      4827      4834      4830      4825      4824      4827      4828
      4825      4824      4827      4829      4825      4824      4827      4834
      4826      4824      4827      4828      4826      4824      4827      4829
      4826      4824      4827      4834      4827      4834      4830      4831
      4827      4834      4830      4832      4827      4834      4830      4833
      4828      4827      4834      4830      4829      4827      4834      4830
      4830      4833      4835      4836      4830      4833      4835      4837
      4830      4833      4835      4838      4831      4830      4833      4835
      4832      4830      4833      4835      4833      4835      4838      4839
      4833      4835      4838      4840      4833      4835      4838      4846
      4834      4830      4833      4835      4835      4838      4840      4841
      4835      4838      4846      4847      4835      4838      4846      4848
      4835      4838      4846      4849      4836      4835      4838      4839
      4836      4835      4838      4840      4836      4835      4838      4846
      4837      4835      4838      4839      4837      4835      4838      4840
      4837      4835      4838      4846      4838      4840      4841      4842
      4838      4840      4841      4843      4838      4846      4849      4850
      4839      4838      4840      4841      4839      4838      4846      4847
      4839      4838      4846      4848      4839      4838      4846      4849
      4840      4838      4846      4847      4840      4838      4846      4848
      4840      4838      4846      4849      4840      4841      4843      4844
      4840      4841      4843      4845      4840      4841      4843      4855
      4841      4840      4838      4846      4841      4843      4855      4856
      4841      4843      4855      4857      4841      4843      4855      4858
      4842      4841      4843      4844      4842      4841      4843      4845
      4842      4841      4843      4855      4843      4855      4858      4859
      4843      4855      4858      4860      4843      4855      4858      4861
      4844      4843      4855      4856      4844      4843      4855      4857
      4844      4843      4855      4858      4845      4843      4855      4856
      4845      4843      4855      4857      4845      4843      4855      4858
      4846      4849      4850      4851      4846      4849      4850      4852
      4847      4846      4849      4850      4848      4846      4849      4850
      4849      4850      4852      4853      4849      4850      4852      4854
      4849      4850      4852      4898      4850      4852      4898      4899
      4850      4852      4898      4900      4850      4852      4898      4901
      4851      4850      4852      4853      4851      4850      4852      4854
      4851      4850      4852      4898      4852      4898      4901      4902
      4852      4898      4901      4903      4852      4898      4901      4904
      4853      4852      4898      4899      4853      4852      4898      4900
      4853      4852      4898      4901      4854      4852      4898      4899
      4854      4852      4898      4900      4854      4852      4898      4901
      4855      4858      4861      4862      4855      4858      4861      4863
      4855      4858      4861      4864      4856      4855      4858      4859
      4856      4855      4858      4860      4856      4855      4858      4861
      4857      4855      4858      4859      4857      4855      4858      4860
      4857      4855      4858      4861      4858      4861      4864      4865
      4858      4861      4864      4866      4858      4861      4864      4867
      4859      4858      4861      4862      4859      4858      4861      4863
      4859      4858      4861      4864      4860      4858      4861      4862
      4860      4858      4861      4863      4860      4858      4861      4864
      4861      4864      4867      4868      4861      4864      4867      4869
      4861      4864      4867      4870      4862      4861      4864      4865
      4862      4861      4864      4866      4862      4861      4864      4867
      4863      4861      4864      4865      4863      4861      4864      4866
      4863      4861      4864      4867      4864      4867      4870      4871
      4864      4867      4870      4872      4864      4867      4870      4873
      4865      4864      4867      4868      4865      4864      4867      4869
      4865      4864      4867      4870      4866      4864      4867      4868
      4866      4864      4867      4869      4866      4864      4867      4870
      4867      4870      4873      4874      4867      4870      4873      4875
      4867      4870      4873      4876      4868      4867      4870      4871
      4868      4867      4870      4872      4868      4867      4870      4873
      4869      4867      4870      4871      4869      4867      4870      4872
      4869      4867      4870      4873      4870      4873      4876      4877
      4870      4873      4876      4878      4870      4873      4876      4879
      4871      4870      4873      4874      4871      4870      4873      4875
      4871      4870      4873      4876      4872      4870      4873      4874
      4872      4870      4873      4875      4872      4870      4873      4876
      4873      4876      4879      4880      4873      4876      4879      4881
      4873      4876      4879      4882      4874      4873      4876      4877
      4874      4873      4876      4878      4874      4873      4876      4879
      4875      4873      4876      4877      4875      4873      4876      4878
      4875      4873      4876      4879      4876      4879      4882      4883
      4876      4879      4882      4884      4876      4879      4882      4885
      4877      4876      4879      4880      4877      4876      4879      4881
      4877      4876      4879      4882      4878      4876      4879      4880
      4878      4876      4879      4881      4878      4876      4879      4882
      4879      4882      4885      4886      4879      4882      4885      4887
      4879      4882      4885      4888      4880      4879      4882      4883
      4880      4879      4882      4884      4880      4879      4882      4885
      4881      4879      4882      4883      4881      4879      4882      4884
      4881      4879      4882      4885      4882      4885      4888      4889
      4882      4885      4888      4890      4882      4885      4888      4891
      4883      4882      4885      4886      4883      4882      4885      4887
      4883      4882      4885      4888      4884      4882      4885      4886
      4884      4882      4885      4887      4884      4882      4885      4888
      4885      4888      4891      4892      4885      4888      4891      4893
      4885      4888      4891      4894      4886      4885      4888      4889
      4886      4885      4888      4890      4886      4885      4888      4891
      4887      4885      4888      4889      4887      4885      4888      4890
      4887      4885      4888      4891      4888      4891      4894      4895
      4888      4891      4894      4896      4888      4891      4894      4897
      4889      4888      4891      4892      4889      4888      4891      4893
      4889      4888      4891      4894      4890      4888      4891      4892
      4890      4888      4891      4893      4890      4888      4891      4894
      4892      4891      4894      4895      4892      4891      4894      4896
      4892      4891      4894      4897      4893      4891      4894      4895
      4893      4891      4894      4896      4893      4891      4894      4897
      4898      4901      4904      4905      4898      4901      4904      4906
      4898      4901      4904      4907      4899      4898      4901      4902
      4899      4898      4901      4903      4899      4898      4901      4904
      4900      4898      4901      4902      4900      4898      4901      4903
      4900      4898      4901      4904      4901      4904      4907      4908
      4901      4904      4907      4909      4901      4904      4907      4910
      4902      4901      4904      4905      4902      4901      4904      4906
      4902      4901      4904      4907      4903      4901      4904      4905
      4903      4901      4904      4906      4903      4901      4904      4907
      4904      4907      4910      4911      4904      4907      4910      4912
      4904      4907      4910      4913      4905      4904      4907      4908
      4905      4904      4907      4909      4905      4904      4907      4910
      4906      4904      4907      4908      4906      4904      4907      4909
      4906      4904      4907      4910      4907      4910      4913      4914
      4907      4910      4913      4915      4907      4910      4913      4916
      4908      4907      4910      4911      4908      4907      4910      4912
      4908      4907      4910      4913      4909      4907      4910      4911
      4909      4907      4910      4912      4909      4907      4910      4913
      4910      4913      4916      4917      4910      4913      4916      4918
      4910      4913      4916      4919      4911      4910      4913      4914
      4911      4910      4913      4915      4911      4910      4913      4916
      4912      4910      4913      4914      4912      4910      4913      4915
      4912      4910      4913      4916      4913      4916      4919      4920
      4913      4916      4919      4921      4913      4916      4919      4922
      4914      4913      4916      4917      4914      4913      4916      4918
      4914      4913      4916      4919      4915      4913      4916      4917
      4915      4913      4916      4918      4915      4913      4916      4919
      4916      4919      4922      4923      4916      4919      4922      4924
      4916      4919      4922      4925      4917      4916      4919      4920
      4917      4916      4919      4921      4917      4916      4919      4922
      4918      4916      4919      4920      4918      4916      4919      4921
      4918      4916      4919      4922      4919      4922      4925      4926
      4919      4922      4925      4927      4919      4922      4925      4928
      4920      4919      4922      4923      4920      4919      4922      4924
      4920      4919      4922      4925      4921      4919      4922      4923
      4921      4919      4922      4924      4921      4919      4922      4925
      4922      4925      4928      4929      4922      4925      4928      4930
      4922      4925      4928      4931      4923      4922      4925      4926
      4923      4922      4925      4927      4923      4922      4925      4928
      4924      4922      4925      4926      4924      4922      4925      4927
      4924      4922      4925      4928      4925      4928      4931      4932
      4925      4928      4931      4933      4925      4928      4931      4934
      4926      4925      4928      4929      4926      4925      4928      4930
      4926      4925      4928      4931      4927      4925      4928      4929
      4927      4925      4928      4930      4927      4925      4928      4931
      4928      4931      4934      4935      4928      4931      4934      4936
      4928      4931      4934      4937      4929      4928      4931      4932
      4929      4928      4931      4933      4929      4928      4931      4934
      4930      4928      4931      4932      4930      4928      4931      4933
      4930      4928      4931      4934      4931      4934      4937      4938
      4931      4934      4937      4939      4931      4934      4937      4940
      4932      4931      4934      4935      4932      4931      4934      4936
      4932      4931      4934      4937      4933      4931      4934      4935
      4933      4931      4934      4936      4933      4931      4934      4937
      4935      4934      4937      4938      4935      4934      4937      4939
      4935      4934      4937      4940      4936      4934      4937      4938
      4936      4934      4937      4939      4936      4934      4937      4940
      4941      4954      4957      4958      4941      4954      4957      4959
      4941      4954      4957      4964      4942      4941      4946      4947
      4942      4941      4946      4948      4942      4941      4946      4949
      4942      4941      4950      4951      4942      4941      4950      4952
      4942      4941      4950      4953      4942      4941      4954      4955
      4942      4941      4954      4956      4942      4941      4954      4957
      4943      4942      4941      4946      4943      4942      4941      4950
      4943      4942      4941      4954      4944      4942      4941      4946
      4944      4942      4941      4950      4944      4942      4941      4954
      4945      4942      4941      4946      4945      4942      4941      4950
      4945      4942      4941      4954      4946      4941      4950      4951
      4946      4941      4950      4952      4946      4941      4950      4953
      4946      4941      4954      4955      4946      4941      4954      4956
      4946      4941      4954      4957      4947      4946      4941      4950
      4947      4946      4941      4954      4948      4946      4941      4950
      4948      4946      4941      4954      4949      4946      4941      4950
      4949      4946      4941      4954      4950      4941      4954      4955
      4950      4941      4954      4956      4950      4941      4954      4957
      4951      4950      4941      4954      4952      4950      4941      4954
      4953      4950      4941      4954      4954      4957      4964      4960
      4955      4954      4957      4958      4955      4954      4957      4959
      4955      4954      4957      4964      4956      4954      4957      4958
      4956      4954      4957      4959      4956      4954      4957      4964
      4957      4964      4960      4961      4957      4964      4960      4962
      4957      4964      4960      4963      4958      4957      4964      4960
      4959      4957      4964      4960      4960      4963      4965      4966
      4960      4963      4965      4967      4960      4963      4965      4968
      4961      4960      4963      4965      4962      4960      4963      4965
      4963      4965      4968      4969      4963      4965      4968      4970
      4963      4965      4968      4976      4964      4960      4963      4965
      4965      4968      4970      4971      4965      4968      4976      4977
      4965      4968      4976      4978      4965      4968      4976      4979
      4966      4965      4968      4969      4966      4965      4968      4970
      4966      4965      4968      4976      4967      4965      4968      4969
      4967      4965      4968      4970      4967      4965      4968      4976
      4968      4970      4971      4972      4968      4970      4971      4973
      4968      4976      4979      4980      4969      4968      4970      4971
      4969      4968      4976      4977      4969      4968      4976      4978
      4969      4968      4976      4979      4970      4968      4976      4977
      4970      4968      4976      4978      4970      4968      4976      4979
      4970      4971      4973      4974      4970      4971      4973      4975
      4970      4971      4973      4985      4971      4970      4968      4976
      4971      4973      4985      4986      4971      4973      4985      4987
      4971      4973      4985      4988      4972      4971      4973      4974
      4972      4971      4973      4975      4972      4971      4973      4985
      4973      4985      4988      4989      4973      4985      4988      4990
      4973      4985      4988      4991      4974      4973      4985      4986
      4974      4973      4985      4987      4974      4973      4985      4988
      4975      4973      4985      4986      4975      4973      4985      4987
      4975      4973      4985      4988      4976      4979      4980      4981
      4976      4979      4980      4982      4977      4976      4979      4980
      4978      4976      4979      4980      4979      4980      4982      4983
      4979      4980      4982      4984      4979      4980      4982      5028
      4980      4982      5028      5029      4980      4982      5028      5030
      4980      4982      5028      5031      4981      4980      4982      4983
      4981      4980      4982      4984      4981      4980      4982      5028
      4982      5028      5031      5032      4982      5028      5031      5033
      4982      5028      5031      5034      4983      4982      5028      5029
      4983      4982      5028      5030      4983      4982      5028      5031
      4984      4982      5028      5029      4984      4982      5028      5030
      4984      4982      5028      5031      4985      4988      4991      4992
      4985      4988      4991      4993      4985      4988      4991      4994
      4986      4985      4988      4989      4986      4985      4988      4990
      4986      4985      4988      4991      4987      4985      4988      4989
      4987      4985      4988      4990      4987      4985      4988      4991
      4988      4991      4994      4995      4988      4991      4994      4996
      4988      4991      4994      4997      4989      4988      4991      4992
      4989      4988      4991      4993      4989      4988      4991      4994
      4990      4988      4991      4992      4990      4988      4991      4993
      4990      4988      4991      4994      4991      4994      4997      4998
      4991      4994      4997      4999      4991      4994      4997      5000
      4992      4991      4994      4995      4992      4991      4994      4996
      4992      4991      4994      4997      4993      4991      4994      4995
      4993      4991      4994      4996      4993      4991      4994      4997
      4994      4997      5000      5001      4994      4997      5000      5002
      4994      4997      5000      5003      4995      4994      4997      4998
      4995      4994      4997      4999      4995      4994      4997      5000
      4996      4994      4997      4998      4996      4994      4997      4999
      4996      4994      4997      5000      4997      5000      5003      5004
      4997      5000      5003      5005      4997      5000      5003      5006
      4998      4997      5000      5001      4998      4997      5000      5002
      4998      4997      5000      5003      4999      4997      5000      5001
      4999      4997      5000      5002      4999      4997      5000      5003
      5000      5003      5006      5007      5000      5003      5006      5008
      5000      5003      5006      5009      5001      5000      5003      5004
      5001      5000      5003      5005      5001      5000      5003      5006
      5002      5000      5003      5004      5002      5000      5003      5005
      5002      5000      5003      5006      5003      5006      5009      5010
      5003      5006      5009      5011      5003      5006      5009      5012
      5004      5003      5006      5007      5004      5003      5006      5008
      5004      5003      5006      5009      5005      5003      5006      5007
      5005      5003      5006      5008      5005      5003      5006      5009
      5006      5009      5012      5013      5006      5009      5012      5014
      5006      5009      5012      5015      5007      5006      5009      5010
      5007      5006      5009      5011      5007      5006      5009      5012
      5008      5006      5009      5010      5008      5006      5009      5011
      5008      5006      5009      5012      5009      5012      5015      5016
      5009      5012      5015      5017      5009      5012      5015      5018
      5010      5009      5012      5013      5010      5009      5012      5014
      5010      5009      5012      5015      5011      5009      5012      5013
      5011      5009      5012      5014      5011      5009      5012      5015
      5012      5015      5018      5019      5012      5015      5018      5020
      5012      5015      5018      5021      5013      5012      5015      5016
      5013      5012      5015      5017      5013      5012      5015      5018
      5014      5012      5015      5016      5014      5012      5015      5017
      5014      5012      5015      5018      5015      5018      5021      5022
      5015      5018      5021      5023      5015      5018      5021      5024
      5016      5015      5018      5019      5016      5015      5018      5020
      5016      5015      5018      5021      5017      5015      5018      5019
      5017      5015      5018      5020      5017      5015      5018      5021
      5018      5021      5024      5025      5018      5021      5024      5026
      5018      5021      5024      5027      5019      5018      5021      5022
      5019      5018      5021      5023      5019      5018      5021      5024
      5020      5018      5021      5022      5020      5018      5021      5023
      5020      5018      5021      5024      5022      5021      5024      5025
      5022      5021      5024      5026      5022      5021      5024      5027
      5023      5021      5024      5025      5023      5021      5024      5026
      5023      5021      5024      5027      5028      5031      5034      5035
      5028      5031      5034      5036      5028      5031      5034      5037
      5029      5028      5031      5032      5029      5028      5031      5033
      5029      5028      5031      5034      5030      5028      5031      5032
      5030      5028      5031      5033      5030      5028      5031      5034
      5031      5034      5037      5038      5031      5034      5037      5039
      5031      5034      5037      5040      5032      5031      5034      5035
      5032      5031      5034      5036      5032      5031      5034      5037
      5033      5031      5034      5035      5033      5031      5034      5036
      5033      5031      5034      5037      5034      5037      5040      5041
      5034      5037      5040      5042      5034      5037      5040      5043
      5035      5034      5037      5038      5035      5034      5037      5039
      5035      5034      5037      5040      5036      5034      5037      5038
      5036      5034      5037      5039      5036      5034      5037      5040
      5037      5040      5043      5044      5037      5040      5043      5045
      5037      5040      5043      5046      5038      5037      5040      5041
      5038      5037      5040      5042      5038      5037      5040      5043
      5039      5037      5040      5041      5039      5037      5040      5042
      5039      5037      5040      5043      5040      5043      5046      5047
      5040      5043      5046      5048      5040      5043      5046      5049
      5041      5040      5043      5044      5041      5040      5043      5045
      5041      5040      5043      5046      5042      5040      5043      5044
      5042      5040      5043      5045      5042      5040      5043      5046
      5043      5046      5049      5050      5043      5046      5049      5051
      5043      5046      5049      5052      5044      5043      5046      5047
      5044      5043      5046      5048      5044      5043      5046      5049
      5045      5043      5046      5047      5045      5043      5046      5048
      5045      5043      5046      5049      5046      5049      5052      5053
      5046      5049      5052      5054      5046      5049      5052      5055
      5047      5046      5049      5050      5047      5046      5049      5051
      5047      5046      5049      5052      5048      5046      5049      5050
      5048      5046      5049      5051      5048      5046      5049      5052
      5049      5052      5055      5056      5049      5052      5055      5057
      5049      5052      5055      5058      5050      5049      5052      5053
      5050      5049      5052      5054      5050      5049      5052      5055
      5051      5049      5052      5053      5051      5049      5052      5054
      5051      5049      5052      5055      5052      5055      5058      5059
      5052      5055      5058      5060      5052      5055      5058      5061
      5053      5052      5055      5056      5053      5052      5055      5057
      5053      5052      5055      5058      5054      5052      5055      5056
      5054      5052      5055      5057      5054      5052      5055      5058
      5055      5058      5061      5062      5055      5058      5061      5063
      5055      5058      5061      5064      5056      5055      5058      5059
      5056      5055      5058      5060      5056      5055      5058      5061
      5057      5055      5058      5059      5057      5055      5058      5060
      5057      5055      5058      5061      5058      5061      5064      5065
      5058      5061      5064      5066      5058      5061      5064      5067
      5059      5058      5061      5062      5059      5058      5061      5063
      5059      5058      5061      5064      5060      5058      5061      5062
      5060      5058      5061      5063      5060      5058      5061      5064
      5061      5064      5067      5068      5061      5064      5067      5069
      5061      5064      5067      5070      5062      5061      5064      5065
      5062      5061      5064      5066      5062      5061      5064      5067
      5063      5061      5064      5065      5063      5061      5064      5066
      5063      5061      5064      5067      5065      5064      5067      5068
      5065      5064      5067      5069      5065      5064      5067      5070
      5066      5064      5067      5068      5066      5064      5067      5069
      5066      5064      5067      5070      5071      5084      5087      5088
      5071      5084      5087      5089      5071      5084      5087      5094
      5072      5071      5076      5077      5072      5071      5076      5078
      5072      5071      5076      5079      5072      5071      5080      5081
      5072      5071      5080      5082      5072      5071      5080      5083
      5072      5071      5084      5085      5072      5071      5084      5086
      5072      5071      5084      5087      5073      5072      5071      5076
      5073      5072      5071      5080      5073      5072      5071      5084
      5074      5072      5071      5076      5074      5072      5071      5080
      5074      5072      5071      5084      5075      5072      5071      5076
      5075      5072      5071      5080      5075      5072      5071      5084
      5076      5071      5080      5081      5076      5071      5080      5082
      5076      5071      5080      5083      5076      5071      5084      5085
      5076      5071      5084      5086      5076      5071      5084      5087
      5077      5076      5071      5080      5077      5076      5071      5084
      5078      5076      5071      5080      5078      5076      5071      5084
      5079      5076      5071      5080      5079      5076      5071      5084
      5080      5071      5084      5085      5080      5071      5084      5086
      5080      5071      5084      5087      5081      5080      5071      5084
      5082      5080      5071      5084      5083      5080      5071      5084
      5084      5087      5094      5090      5085      5084      5087      5088
      5085      5084      5087      5089      5085      5084      5087      5094
      5086      5084      5087      5088      5086      5084      5087      5089
      5086      5084      5087      5094      5087      5094      5090      5091
      5087      5094      5090      5092      5087      5094      5090      5093
      5088      5087      5094      5090      5089      5087      5094      5090
      5090      5093      5095      5096      5090      5093      5095      5097
      5090      5093      5095      5098      5091      5090      5093      5095
      5092      5090      5093      5095      5093      5095      5098      5099
      5093      5095      5098      5100      5093      5095      5098      5106
      5094      5090      5093      5095      5095      5098      5100      5101
      5095      5098      5106      5107      5095      5098      5106      5108
      5095      5098      5106      5109      5096      5095      5098      5099
      5096      5095      5098      5100      5096      5095      5098      5106
      5097      5095      5098      5099      5097      5095      5098      5100
      5097      5095      5098      5106      5098      5100      5101      5102
      5098      5100      5101      5103      5098      5106      5109      5110
      5099      5098      5100      5101      5099      5098      5106      5107
      5099      5098      5106      5108      5099      5098      5106      5109
      5100      5098      5106      5107      5100      5098      5106      5108
      5100      5098      5106      5109      5100      5101      5103      5104
      5100      5101      5103      5105      5100      5101      5103      5115
      5101      5100      5098      5106      5101      5103      5115      5116
      5101      5103      5115      5117      5101      5103      5115      5118
      5102      5101      5103      5104      5102      5101      5103      5105
      5102      5101      5103      5115      5103      5115      5118      5119
      5103      5115      5118      5120      5103      5115      5118      5121
      5104      5103      5115      5116      5104      5103      5115      5117
      5104      5103      5115      5118      5105      5103      5115      5116
      5105      5103      5115      5117      5105      5103      5115      5118
      5106      5109      5110      5111      5106      5109      5110      5112
      5107      5106      5109      5110      5108      5106      5109      5110
      5109      5110      5112      5113      5109      5110      5112      5114
      5109      5110      5112      5158      5110      5112      5158      5159
      5110      5112      5158      5160      5110      5112      5158      5161
      5111      5110      5112      5113      5111      5110      5112      5114
      5111      5110      5112      5158      5112      5158      5161      5162
      5112      5158      5161      5163      5112      5158      5161      5164
      5113      5112      5158      5159      5113      5112      5158      5160
      5113      5112      5158      5161      5114      5112      5158      5159
      5114      5112      5158      5160      5114      5112      5158      5161
      5115      5118      5121      5122      5115      5118      5121      5123
      5115      5118      5121      5124      5116      5115      5118      5119
      5116      5115      5118      5120      5116      5115      5118      5121
      5117      5115      5118      5119      5117      5115      5118      5120
      5117      5115      5118      5121      5118      5121      5124      5125
      5118      5121      5124      5126      5118      5121      5124      5127
      5119      5118      5121      5122      5119      5118      5121      5123
      5119      5118      5121      5124      5120      5118      5121      5122
      5120      5118      5121      5123      5120      5118      5121      5124
      5121      5124      5127      5128      5121      5124      5127      5129
      5121      5124      5127      5130      5122      5121      5124      5125
      5122      5121      5124      5126      5122      5121      5124      5127
      5123      5121      5124      5125      5123      5121      5124      5126
      5123      5121      5124      5127      5124      5127      5130      5131
      5124      5127      5130      5132      5124      5127      5130      5133
      5125      5124      5127      5128      5125      5124      5127      5129
      5125      5124      5127      5130      5126      5124      5127      5128
      5126      5124      5127      5129      5126      5124      5127      5130
      5127      5130      5133      5134      5127      5130      5133      5135
      5127      5130      5133      5136      5128      5127      5130      5131
      5128      5127      5130      5132      5128      5127      5130      5133
      5129      5127      5130      5131      5129      5127      5130      5132
      5129      5127      5130      5133      5130      5133      5136      5137
      5130      5133      5136      5138      5130      5133      5136      5139
      5131      5130      5133      5134      5131      5130      5133      5135
      5131      5130      5133      5136      5132      5130      5133      5134
      5132      5130      5133      5135      5132      5130      5133      5136
      5133      5136      5139      5140      5133      5136      5139      5141
      5133      5136      5139      5142      5134      5133      5136      5137
      5134      5133      5136      5138      5134      5133      5136      5139
      5135      5133      5136      5137      5135      5133      5136      5138
      5135      5133      5136      5139      5136      5139      5142      5143
      5136      5139      5142      5144      5136      5139      5142      5145
      5137      5136      5139      5140      5137      5136      5139      5141
      5137      5136      5139      5142      5138      5136      5139      5140
      5138      5136      5139      5141      5138      5136      5139      5142
      5139      5142      5145      5146      5139      5142      5145      5147
      5139      5142      5145      5148      5140      5139      5142      5143
      5140      5139      5142      5144      5140      5139      5142      5145
      5141      5139      5142      5143      5141      5139      5142      5144
      5141      5139      5142      5145      5142      5145      5148      5149
      5142      5145      5148      5150      5142      5145      5148      5151
      5143      5142      5145      5146      5143      5142      5145      5147
      5143      5142      5145      5148      5144      5142      5145      5146
      5144      5142      5145      5147      5144      5142      5145      5148
      5145      5148      5151      5152      5145      5148      5151      5153
      5145      5148      5151      5154      5146      5145      5148      5149
      5146      5145      5148      5150      5146      5145      5148      5151
      5147      5145      5148      5149      5147      5145      5148      5150
      5147      5145      5148      5151      5148      5151      5154      5155
      5148      5151      5154      5156      5148      5151      5154      5157
      5149      5148      5151      5152      5149      5148      5151      5153
      5149      5148      5151      5154      5150      5148      5151      5152
      5150      5148      5151      5153      5150      5148      5151      5154
      5152      5151      5154      5155      5152      5151      5154      5156
      5152      5151      5154      5157      5153      5151      5154      5155
      5153      5151      5154      5156      5153      5151      5154      5157
      5158      5161      5164      5165      5158      5161      5164      5166
      5158      5161      5164      5167      5159      5158      5161      5162
      5159      5158      5161      5163      5159      5158      5161      5164
      5160      5158      5161      5162      5160      5158      5161      5163
      5160      5158      5161      5164      5161      5164      5167      5168
      5161      5164      5167      5169      5161      5164      5167      5170
      5162      5161      5164      5165      5162      5161      5164      5166
      5162      5161      5164      5167      5163      5161      5164      5165
      5163      5161      5164      5166      5163      5161      5164      5167
      5164      5167      5170      5171      5164      5167      5170      5172
      5164      5167      5170      5173      5165      5164      5167      5168
      5165      5164      5167      5169      5165      5164      5167      5170
      5166      5164      5167      5168      5166      5164      5167      5169
      5166      5164      5167      5170      5167      5170      5173      5174
      5167      5170      5173      5175      5167      5170      5173      5176
      5168      5167      5170      5171      5168      5167      5170      5172
      5168      5167      5170      5173      5169      5167      5170      5171
      5169      5167      5170      5172      5169      5167      5170      5173
      5170      5173      5176      5177      5170      5173      5176      5178
      5170      5173      5176      5179      5171      5170      5173      5174
      5171      5170      5173      5175      5171      5170      5173      5176
      5172      5170      5173      5174      5172      5170      5173      5175
      5172      5170      5173      5176      5173      5176      5179      5180
      5173      5176      5179      5181      5173      5176      5179      5182
      5174      5173      5176      5177      5174      5173      5176      5178
      5174      5173      5176      5179      5175      5173      5176      5177
      5175      5173      5176      5178      5175      5173      5176      5179
      5176      5179      5182      5183      5176      5179      5182      5184
      5176      5179      5182      5185      5177      5176      5179      5180
      5177      5176      5179      5181      5177      5176      5179      5182
      5178      5176      5179      5180      5178      5176      5179      5181
      5178      5176      5179      5182      5179      5182      5185      5186
      5179      5182      5185      5187      5179      5182      5185      5188
      5180      5179      5182      5183      5180      5179      5182      5184
      5180      5179      5182      5185      5181      5179      5182      5183
      5181      5179      5182      5184      5181      5179      5182      5185
      5182      5185      5188      5189      5182      5185      5188      5190
      5182      5185      5188      5191      5183      5182      5185      5186
      5183      5182      5185      5187      5183      5182      5185      5188
      5184      5182      5185      5186      5184      5182      5185      5187
      5184      5182      5185      5188      5185      5188      5191      5192
      5185      5188      5191      5193      5185      5188      5191      5194
      5186      5185      5188      5189      5186      5185      5188      5190
      5186      5185      5188      5191      5187      5185      5188      5189
      5187      5185      5188      5190      5187      5185      5188      5191
      5188      5191      5194      5195      5188      5191      5194      5196
      5188      5191      5194      5197      5189      5188      5191      5192
      5189      5188      5191      5193      5189      5188      5191      5194
      5190      5188      5191      5192      5190      5188      5191      5193
      5190      5188      5191      5194      5191      5194      5197      5198
      5191      5194      5197      5199      5191      5194      5197      5200
      5192      5191      5194      5195      5192      5191      5194      5196
      5192      5191      5194      5197      5193      5191      5194      5195
      5193      5191      5194      5196      5193      5191      5194      5197
      5195      5194      5197      5198      5195      5194      5197      5199
      5195      5194      5197      5200      5196      5194      5197      5198
      5196      5194      5197      5199      5196      5194      5197      5200
      5201      5214      5217      5218      5201      5214      5217      5219
      5201      5214      5217      5224      5202      5201      5206      5207
      5202      5201      5206      5208      5202      5201      5206      5209
      5202      5201      5210      5211      5202      5201      5210      5212
      5202      5201      5210      5213      5202      5201      5214      5215
      5202      5201      5214      5216      5202      5201      5214      5217
      5203      5202      5201      5206      5203      5202      5201      5210
      5203      5202      5201      5214      5204      5202      5201      5206
      5204      5202      5201      5210      5204      5202      5201      5214
      5205      5202      5201      5206      5205      5202      5201      5210
      5205      5202      5201      5214      5206      5201      5210      5211
      5206      5201      5210      5212      5206      5201      5210      5213
      5206      5201      5214      5215      5206      5201      5214      5216
      5206      5201      5214      5217      5207      5206      5201      5210
      5207      5206      5201      5214      5208      5206      5201      5210
      5208      5206      5201      5214      5209      5206      5201      5210
      5209      5206      5201      5214      5210      5201      5214      5215
      5210      5201      5214      5216      5210      5201      5214      5217
      5211      5210      5201      5214      5212      5210      5201      5214
      5213      5210      5201      5214      5214      5217      5224      5220
      5215      5214      5217      5218      5215      5214      5217      5219
      5215      5214      5217      5224      5216      5214      5217      5218
      5216      5214      5217      5219      5216      5214      5217      5224
      5217      5224      5220      5221      5217      5224      5220      5222
      5217      5224      5220      5223      5218      5217      5224      5220
      5219      5217      5224      5220      5220      5223      5225      5226
      5220      5223      5225      5227      5220      5223      5225      5228
      5221      5220      5223      5225      5222      5220      5223      5225
      5223      5225      5228      5229      5223      5225      5228      5230
      5223      5225      5228      5236      5224      5220      5223      5225
      5225      5228      5230      5231      5225      5228      5236      5237
      5225      5228      5236      5238      5225      5228      5236      5239
      5226      5225      5228      5229      5226      5225      5228      5230
      5226      5225      5228      5236      5227      5225      5228      5229
      5227      5225      5228      5230      5227      5225      5228      5236
      5228      5230      5231      5232      5228      5230      5231      5233
      5228      5236      5239      5240      5229      5228      5230      5231
      5229      5228      5236      5237      5229      5228      5236      5238
      5229      5228      5236      5239      5230      5228      5236      5237
      5230      5228      5236      5238      5230      5228      5236      5239
      5230      5231      5233      5234      5230      5231      5233      5235
      5230      5231      5233      5245      5231      5230      5228      5236
      5231      5233      5245      5246      5231      5233      5245      5247
      5231      5233      5245      5248      5232      5231      5233      5234
      5232      5231      5233      5235      5232      5231      5233      5245
      5233      5245      5248      5249      5233      5245      5248      5250
      5233      5245      5248      5251      5234      5233      5245      5246
      5234      5233      5245      5247      5234      5233      5245      5248
      5235      5233      5245      5246      5235      5233      5245      5247
      5235      5233      5245      5248      5236      5239      5240      5241
      5236      5239      5240      5242      5237      5236      5239      5240
      5238      5236      5239      5240      5239      5240      5242      5243
      5239      5240      5242      5244      5239      5240      5242      5288
      5240      5242      5288      5289      5240      5242      5288      5290
      5240      5242      5288      5291      5241      5240      5242      5243
      5241      5240      5242      5244      5241      5240      5242      5288
      5242      5288      5291      5292      5242      5288      5291      5293
      5242      5288      5291      5294      5243      5242      5288      5289
      5243      5242      5288      5290      5243      5242      5288      5291
      5244      5242      5288      5289      5244      5242      5288      5290
      5244      5242      5288      5291      5245      5248      5251      5252
      5245      5248      5251      5253      5245      5248      5251      5254
      5246      5245      5248      5249      5246      5245      5248      5250
      5246      5245      5248      5251      5247      5245      5248      5249
      5247      5245      5248      5250      5247      5245      5248      5251
      5248      5251      5254      5255      5248      5251      5254      5256
      5248      5251      5254      5257      5249      5248      5251      5252
      5249      5248      5251      5253      5249      5248      5251      5254
      5250      5248      5251      5252      5250      5248      5251      5253
      5250      5248      5251      5254      5251      5254      5257      5258
      5251      5254      5257      5259      5251      5254      5257      5260
      5252      5251      5254      5255      5252      5251      5254      5256
      5252      5251      5254      5257      5253      5251      5254      5255
      5253      5251      5254      5256      5253      5251      5254      5257
      5254      5257      5260      5261      5254      5257      5260      5262
      5254      5257      5260      5263      5255      5254      5257      5258
      5255      5254      5257      5259      5255      5254      5257      5260
      5256      5254      5257      5258      5256      5254      5257      5259
      5256      5254      5257      5260      5257      5260      5263      5264
      5257      5260      5263      5265      5257      5260      5263      5266
      5258      5257      5260      5261      5258      5257      5260      5262
      5258      5257      5260      5263      5259      5257      5260      5261
      5259      5257      5260      5262      5259      5257      5260      5263
      5260      5263      5266      5267      5260      5263      5266      5268
      5260      5263      5266      5269      5261      5260      5263      5264
      5261      5260      5263      5265      5261      5260      5263      5266
      5262      5260      5263      5264      5262      5260      5263      5265
      5262      5260      5263      5266      5263      5266      5269      5270
      5263      5266      5269      5271      5263      5266      5269      5272
      5264      5263      5266      5267      5264      5263      5266      5268
      5264      5263      5266      5269      5265      5263      5266      5267
      5265      5263      5266      5268      5265      5263      5266      5269
      5266      5269      5272      5273      5266      5269      5272      5274
      5266      5269      5272      5275      5267      5266      5269      5270
      5267      5266      5269      5271      5267      5266      5269      5272
      5268      5266      5269      5270      5268      5266      5269      5271
      5268      5266      5269      5272      5269      5272      5275      5276
      5269      5272      5275      5277      5269      5272      5275      5278
      5270      5269      5272      5273      5270      5269      5272      5274
      5270      5269      5272      5275      5271      5269      5272      5273
      5271      5269      5272      5274      5271      5269      5272      5275
      5272      5275      5278      5279      5272      5275      5278      5280
      5272      5275      5278      5281      5273      5272      5275      5276
      5273      5272      5275      5277      5273      5272      5275      5278
      5274      5272      5275      5276      5274      5272      5275      5277
      5274      5272      5275      5278      5275      5278      5281      5282
      5275      5278      5281      5283      5275      5278      5281      5284
      5276      5275      5278      5279      5276      5275      5278      5280
      5276      5275      5278      5281      5277      5275      5278      5279
      5277      5275      5278      5280      5277      5275      5278      5281
      5278      5281      5284      5285      5278      5281      5284      5286
      5278      5281      5284      5287      5279      5278      5281      5282
      5279      5278      5281      5283      5279      5278      5281      5284
      5280      5278      5281      5282      5280      5278      5281      5283
      5280      5278      5281      5284      5282      5281      5284      5285
      5282      5281      5284      5286      5282      5281      5284      5287
      5283      5281      5284      5285      5283      5281      5284      5286
      5283      5281      5284      5287      5288      5291      5294      5295
      5288      5291      5294      5296      5288      5291      5294      5297
      5289      5288      5291      5292      5289      5288      5291      5293
      5289      5288      5291      5294      5290      5288      5291      5292
      5290      5288      5291      5293      5290      5288      5291      5294
      5291      5294      5297      5298      5291      5294      5297      5299
      5291      5294      5297      5300      5292      5291      5294      5295
      5292      5291      5294      5296      5292      5291      5294      5297
      5293      5291      5294      5295      5293      5291      5294      5296
      5293      5291      5294      5297      5294      5297      5300      5301
      5294      5297      5300      5302      5294      5297      5300      5303
      5295      5294      5297      5298      5295      5294      5297      5299
      5295      5294      5297      5300      5296      5294      5297      5298
      5296      5294      5297      5299      5296      5294      5297      5300
      5297      5300      5303      5304      5297      5300      5303      5305
      5297      5300      5303      5306      5298      5297      5300      5301
      5298      5297      5300      5302      5298      5297      5300      5303
      5299      5297      5300      5301      5299      5297      5300      5302
      5299      5297      5300      5303      5300      5303      5306      5307
      5300      5303      5306      5308      5300      5303      5306      5309
      5301      5300      5303      5304      5301      5300      5303      5305
      5301      5300      5303      5306      5302      5300      5303      5304
      5302      5300      5303      5305      5302      5300      5303      5306
      5303      5306      5309      5310      5303      5306      5309      5311
      5303      5306      5309      5312      5304      5303      5306      5307
      5304      5303      5306      5308      5304      5303      5306      5309
      5305      5303      5306      5307      5305      5303      5306      5308
      5305      5303      5306      5309      5306      5309      5312      5313
      5306      5309      5312      5314      5306      5309      5312      5315
      5307      5306      5309      5310      5307      5306      5309      5311
      5307      5306      5309      5312      5308      5306      5309      5310
      5308      5306      5309      5311      5308      5306      5309      5312
      5309      5312      5315      5316      5309      5312      5315      5317
      5309      5312      5315      5318      5310      5309      5312      5313
      5310      5309      5312      5314      5310      5309      5312      5315
      5311      5309      5312      5313      5311      5309      5312      5314
      5311      5309      5312      5315      5312      5315      5318      5319
      5312      5315      5318      5320      5312      5315      5318      5321
      5313      5312      5315      5316      5313      5312      5315      5317
      5313      5312      5315      5318      5314      5312      5315      5316
      5314      5312      5315      5317      5314      5312      5315      5318
      5315      5318      5321      5322      5315      5318      5321      5323
      5315      5318      5321      5324      5316      5315      5318      5319
      5316      5315      5318      5320      5316      5315      5318      5321
      5317      5315      5318      5319      5317      5315      5318      5320
      5317      5315      5318      5321      5318      5321      5324      5325
      5318      5321      5324      5326      5318      5321      5324      5327
      5319      5318      5321      5322      5319      5318      5321      5323
      5319      5318      5321      5324      5320      5318      5321      5322
      5320      5318      5321      5323      5320      5318      5321      5324
      5321      5324      5327      5328      5321      5324      5327      5329
      5321      5324      5327      5330      5322      5321      5324      5325
      5322      5321      5324      5326      5322      5321      5324      5327
      5323      5321      5324      5325      5323      5321      5324      5326
      5323      5321      5324      5327      5325      5324      5327      5328
      5325      5324      5327      5329      5325      5324      5327      5330
      5326      5324      5327      5328      5326      5324      5327      5329
      5326      5324      5327      5330      5331      5344      5347      5348
      5331      5344      5347      5349      5331      5344      5347      5354
      5332      5331      5336      5337      5332      5331      5336      5338
      5332      5331      5336      5339      5332      5331      5340      5341
      5332      5331      5340      5342      5332      5331      5340      5343
      5332      5331      5344      5345      5332      5331      5344      5346
      5332      5331      5344      5347      5333      5332      5331      5336
      5333      5332      5331      5340      5333      5332      5331      5344
      5334      5332      5331      5336      5334      5332      5331      5340
      5334      5332      5331      5344      5335      5332      5331      5336
      5335      5332      5331      5340      5335      5332      5331      5344
      5336      5331      5340      5341      5336      5331      5340      5342
      5336      5331      5340      5343      5336      5331      5344      5345
      5336      5331      5344      5346      5336      5331      5344      5347
      5337      5336      5331      5340      5337      5336      5331      5344
      5338      5336      5331      5340      5338      5336      5331      5344
      5339      5336      5331      5340      5339      5336      5331      5344
      5340      5331      5344      5345      5340      5331      5344      5346
      5340      5331      5344      5347      5341      5340      5331      5344
      5342      5340      5331      5344      5343      5340      5331      5344
      5344      5347      5354      5350      5345      5344      5347      5348
      5345      5344      5347      5349      5345      5344      5347      5354
      5346      5344      5347      5348      5346      5344      5347      5349
      5346      5344      5347      5354      5347      5354      5350      5351
      5347      5354      5350      5352      5347      5354      5350      5353
      5348      5347      5354      5350      5349      5347      5354      5350
      5350      5353      5355      5356      5350      5353      5355      5357
      5350      5353      5355      5358      5351      5350      5353      5355
      5352      5350      5353      5355      5353      5355      5358      5359
      5353      5355      5358      5360      5353      5355      5358      5366
      5354      5350      5353      5355      5355      5358      5360      5361
      5355      5358      5366      5367      5355      5358      5366      5368
      5355      5358      5366      5369      5356      5355      5358      5359
      5356      5355      5358      5360      5356      5355      5358      5366
      5357      5355      5358      5359      5357      5355      5358      5360
      5357      5355      5358      5366      5358      5360      5361      5362
      5358      5360      5361      5363      5358      5366      5369      5370
      5359      5358      5360      5361      5359      5358      5366      5367
      5359      5358      5366      5368      5359      5358      5366      5369
      5360      5358      5366      5367      5360      5358      5366      5368
      5360      5358      5366      5369      5360      5361      5363      5364
      5360      5361      5363      5365      5360      5361      5363      5375
      5361      5360      5358      5366      5361      5363      5375      5376
      5361      5363      5375      5377      5361      5363      5375      5378
      5362      5361      5363      5364      5362      5361      5363      5365
      5362      5361      5363      5375      5363      5375      5378      5379
      5363      5375      5378      5380      5363      5375      5378      5381
      5364      5363      5375      5376      5364      5363      5375      5377
      5364      5363      5375      5378      5365      5363      5375      5376
      5365      5363      5375      5377      5365      5363      5375      5378
      5366      5369      5370      5371      5366      5369      5370      5372
      5367      5366      5369      5370      5368      5366      5369      5370
      5369      5370      5372      5373      5369      5370      5372      5374
      5369      5370      5372      5418      5370      5372      5418      5419
      5370      5372      5418      5420      5370      5372      5418      5421
      5371      5370      5372      5373      5371      5370      5372      5374
      5371      5370      5372      5418      5372      5418      5421      5422
      5372      5418      5421      5423      5372      5418      5421      5424
      5373      5372      5418      5419      5373      5372      5418      5420
      5373      5372      5418      5421      5374      5372      5418      5419
      5374      5372      5418      5420      5374      5372      5418      5421
      5375      5378      5381      5382      5375      5378      5381      5383
      5375      5378      5381      5384      5376      5375      5378      5379
      5376      5375      5378      5380      5376      5375      5378      5381
      5377      5375      5378      5379      5377      5375      5378      5380
      5377      5375      5378      5381      5378      5381      5384      5385
      5378      5381      5384      5386      5378      5381      5384      5387
      5379      5378      5381      5382      5379      5378      5381      5383
      5379      5378      5381      5384      5380      5378      5381      5382
      5380      5378      5381      5383      5380      5378      5381      5384
      5381      5384      5387      5388      5381      5384      5387      5389
      5381      5384      5387      5390      5382      5381      5384      5385
      5382      5381      5384      5386      5382      5381      5384      5387
      5383      5381      5384      5385      5383      5381      5384      5386
      5383      5381      5384      5387      5384      5387      5390      5391
      5384      5387      5390      5392      5384      5387      5390      5393
      5385      5384      5387      5388      5385      5384      5387      5389
      5385      5384      5387      5390      5386      5384      5387      5388
      5386      5384      5387      5389      5386      5384      5387      5390
      5387      5390      5393      5394      5387      5390      5393      5395
      5387      5390      5393      5396      5388      5387      5390      5391
      5388      5387      5390      5392      5388      5387      5390      5393
      5389      5387      5390      5391      5389      5387      5390      5392
      5389      5387      5390      5393      5390      5393      5396      5397
      5390      5393      5396      5398      5390      5393      5396      5399
      5391      5390      5393      5394      5391      5390      5393      5395
      5391      5390      5393      5396      5392      5390      5393      5394
      5392      5390      5393      5395      5392      5390      5393      5396
      5393      5396      5399      5400      5393      5396      5399      5401
      5393      5396      5399      5402      5394      5393      5396      5397
      5394      5393      5396      5398      5394      5393      5396      5399
      5395      5393      5396      5397      5395      5393      5396      5398
      5395      5393      5396      5399      5396      5399      5402      5403
      5396      5399      5402      5404      5396      5399      5402      5405
      5397      5396      5399      5400      5397      5396      5399      5401
      5397      5396      5399      5402      5398      5396      5399      5400
      5398      5396      5399      5401      5398      5396      5399      5402
      5399      5402      5405      5406      5399      5402      5405      5407
      5399      5402      5405      5408      5400      5399      5402      5403
      5400      5399      5402      5404      5400      5399      5402      5405
      5401      5399      5402      5403      5401      5399      5402      5404
      5401      5399      5402      5405      5402      5405      5408      5409
      5402      5405      5408      5410      5402      5405      5408      5411
      5403      5402      5405      5406      5403      5402      5405      5407
      5403      5402      5405      5408      5404      5402      5405      5406
      5404      5402      5405      5407      5404      5402      5405      5408
      5405      5408      5411      5412      5405      5408      5411      5413
      5405      5408      5411      5414      5406      5405      5408      5409
      5406      5405      5408      5410      5406      5405      5408      5411
      5407      5405      5408      5409      5407      5405      5408      5410
      5407      5405      5408      5411      5408      5411      5414      5415
      5408      5411      5414      5416      5408      5411      5414      5417
      5409      5408      5411      5412      5409      5408      5411      5413
      5409      5408      5411      5414      5410      5408      5411      5412
      5410      5408      5411      5413      5410      5408      5411      5414
      5412      5411      5414      5415      5412      5411      5414      5416
      5412      5411      5414      5417      5413      5411      5414      5415
      5413      5411      5414      5416      5413      5411      5414      5417
      5418      5421      5424      5425      5418      5421      5424      5426
      5418      5421      5424      5427      5419      5418      5421      5422
      5419      5418      5421      5423      5419      5418      5421      5424
      5420      5418      5421      5422      5420      5418      5421      5423
      5420      5418      5421      5424      5421      5424      5427      5428
      5421      5424      5427      5429      5421      5424      5427      5430
      5422      5421      5424      5425      5422      5421      5424      5426
      5422      5421      5424      5427      5423      5421      5424      5425
      5423      5421      5424      5426      5423      5421      5424      5427
      5424      5427      5430      5431      5424      5427      5430      5432
      5424      5427      5430      5433      5425      5424      5427      5428
      5425      5424      5427      5429      5425      5424      5427      5430
      5426      5424      5427      5428      5426      5424      5427      5429
      5426      5424      5427      5430      5427      5430      5433      5434
      5427      5430      5433      5435      5427      5430      5433      5436
      5428      5427      5430      5431      5428      5427      5430      5432
      5428      5427      5430      5433      5429      5427      5430      5431
      5429      5427      5430      5432      5429      5427      5430      5433
      5430      5433      5436      5437      5430      5433      5436      5438
      5430      5433      5436      5439      5431      5430      5433      5434
      5431      5430      5433      5435      5431      5430      5433      5436
      5432      5430      5433      5434      5432      5430      5433      5435
      5432      5430      5433      5436      5433      5436      5439      5440
      5433      5436      5439      5441      5433      5436      5439      5442
      5434      5433      5436      5437      5434      5433      5436      5438
      5434      5433      5436      5439      5435      5433      5436      5437
      5435      5433      5436      5438      5435      5433      5436      5439
      5436      5439      5442      5443      5436      5439      5442      5444
      5436      5439      5442      5445      5437      5436      5439      5440
      5437      5436      5439      5441      5437      5436      5439      5442
      5438      5436      5439      5440      5438      5436      5439      5441
      5438      5436      5439      5442      5439      5442      5445      5446
      5439      5442      5445      5447      5439      5442      5445      5448
      5440      5439      5442      5443      5440      5439      5442      5444
      5440      5439      5442      5445      5441      5439      5442      5443
      5441      5439      5442      5444      5441      5439      5442      5445
      5442      5445      5448      5449      5442      5445      5448      5450
      5442      5445      5448      5451      5443      5442      5445      5446
      5443      5442      5445      5447      5443      5442      5445      5448
      5444      5442      5445      5446      5444      5442      5445      5447
      5444      5442      5445      5448      5445      5448      5451      5452
      5445      5448      5451      5453      5445      5448      5451      5454
      5446      5445      5448      5449      5446      5445      5448      5450
      5446      5445      5448      5451      5447      5445      5448      5449
      5447      5445      5448      5450      5447      5445      5448      5451
      5448      5451      5454      5455      5448      5451      5454      5456
      5448      5451      5454      5457      5449      5448      5451      5452
      5449      5448      5451      5453      5449      5448      5451      5454
      5450      5448      5451      5452      5450      5448      5451      5453
      5450      5448      5451      5454      5451      5454      5457      5458
      5451      5454      5457      5459      5451      5454      5457      5460
      5452      5451      5454      5455      5452      5451      5454      5456
      5452      5451      5454      5457      5453      5451      5454      5455
      5453      5451      5454      5456      5453      5451      5454      5457
      5455      5454      5457      5458      5455      5454      5457      5459
      5455      5454      5457      5460      5456      5454      5457      5458
      5456      5454      5457      5459      5456      5454      5457      5460
      5461      5474      5477      5478      5461      5474      5477      5479
      5461      5474      5477      5484      5462      5461      5466      5467
      5462      5461      5466      5468      5462      5461      5466      5469
      5462      5461      5470      5471      5462      5461      5470      5472
      5462      5461      5470      5473      5462      5461      5474      5475
      5462      5461      5474      5476      5462      5461      5474      5477
      5463      5462      5461      5466      5463      5462      5461      5470
      5463      5462      5461      5474      5464      5462      5461      5466
      5464      5462      5461      5470      5464      5462      5461      5474
      5465      5462      5461      5466      5465      5462      5461      5470
      5465      5462      5461      5474      5466      5461      5470      5471
      5466      5461      5470      5472      5466      5461      5470      5473
      5466      5461      5474      5475      5466      5461      5474      5476
      5466      5461      5474      5477      5467      5466      5461      5470
      5467      5466      5461      5474      5468      5466      5461      5470
      5468      5466      5461      5474      5469      5466      5461      5470
      5469      5466      5461      5474      5470      5461      5474      5475
      5470      5461      5474      5476      5470      5461      5474      5477
      5471      5470      5461      5474      5472      5470      5461      5474
      5473      5470      5461      5474      5474      5477      5484      5480
      5475      5474      5477      5478      5475      5474      5477      5479
      5475      5474      5477      5484      5476      5474      5477      5478
      5476      5474      5477      5479      5476      5474      5477      5484
      5477      5484      5480      5481      5477      5484      5480      5482
      5477      5484      5480      5483      5478      5477      5484      5480
      5479      5477      5484      5480      5480      5483      5485      5486
      5480      5483      5485      5487      5480      5483      5485      5488
      5481      5480      5483      5485      5482      5480      5483      5485
      5483      5485      5488      5489      5483      5485      5488      5490
      5483      5485      5488      5496      5484      5480      5483      5485
      5485      5488      5490      5491      5485      5488      5496      5497
      5485      5488      5496      5498      5485      5488      5496      5499
      5486      5485      5488      5489      5486      5485      5488      5490
      5486      5485      5488      5496      5487      5485      5488      5489
      5487      5485      5488      5490      5487      5485      5488      5496
      5488      5490      5491      5492      5488      5490      5491      5493
      5488      5496      5499      5500      5489      5488      5490      5491
      5489      5488      5496      5497      5489      5488      5496      5498
      5489      5488      5496      5499      5490      5488      5496      5497
      5490      5488      5496      5498      5490      5488      5496      5499
      5490      5491      5493      5494      5490      5491      5493      5495
      5490      5491      5493      5505      5491      5490      5488      5496
      5491      5493      5505      5506      5491      5493      5505      5507
      5491      5493      5505      5508      5492      5491      5493      5494
      5492      5491      5493      5495      5492      5491      5493      5505
      5493      5505      5508      5509      5493      5505      5508      5510
      5493      5505      5508      5511      5494      5493      5505      5506
      5494      5493      5505      5507      5494      5493      5505      5508
      5495      5493      5505      5506      5495      5493      5505      5507
      5495      5493      5505      5508      5496      5499      5500      5501
      5496      5499      5500      5502      5497      5496      5499      5500
      5498      5496      5499      5500      5499      5500      5502      5503
      5499      5500      5502      5504      5499      5500      5502      5548
      5500      5502      5548      5549      5500      5502      5548      5550
      5500      5502      5548      5551      5501      5500      5502      5503
      5501      5500      5502      5504      5501      5500      5502      5548
      5502      5548      5551      5552      5502      5548      5551      5553
      5502      5548      5551      5554      5503      5502      5548      5549
      5503      5502      5548      5550      5503      5502      5548      5551
      5504      5502      5548      5549      5504      5502      5548      5550
      5504      5502      5548      5551      5505      5508      5511      5512
      5505      5508      5511      5513      5505      5508      5511      5514
      5506      5505      5508      5509      5506      5505      5508      5510
      5506      5505      5508      5511      5507      5505      5508      5509
      5507      5505      5508      5510      5507      5505      5508      5511
      5508      5511      5514      5515      5508      5511      5514      5516
      5508      5511      5514      5517      5509      5508      5511      5512
      5509      5508      5511      5513      5509      5508      5511      5514
      5510      5508      5511      5512      5510      5508      5511      5513
      5510      5508      5511      5514      5511      5514      5517      5518
      5511      5514      5517      5519      5511      5514      5517      5520
      5512      5511      5514      5515      5512      5511      5514      5516
      5512      5511      5514      5517      5513      5511      5514      5515
      5513      5511      5514      5516      5513      5511      5514      5517
      5514      5517      5520      5521      5514      5517      5520      5522
      5514      5517      5520      5523      5515      5514      5517      5518
      5515      5514      5517      5519      5515      5514      5517      5520
      5516      5514      5517      5518      5516      5514      5517      5519
      5516      5514      5517      5520      5517      5520      5523      5524
      5517      5520      5523      5525      5517      5520      5523      5526
      5518      5517      5520      5521      5518      5517      5520      5522
      5518      5517      5520      5523      5519      5517      5520      5521
      5519      5517      5520      5522      5519      5517      5520      5523
      5520      5523      5526      5527      5520      5523      5526      5528
      5520      5523      5526      5529      5521      5520      5523      5524
      5521      5520      5523      5525      5521      5520      5523      5526
      5522      5520      5523      5524      5522      5520      5523      5525
      5522      5520      5523      5526      5523      5526      5529      5530
      5523      5526      5529      5531      5523      5526      5529      5532
      5524      5523      5526      5527      5524      5523      5526      5528
      5524      5523      5526      5529      5525      5523      5526      5527
      5525      5523      5526      5528      5525      5523      5526      5529
      5526      5529      5532      5533      5526      5529      5532      5534
      5526      5529      5532      5535      5527      5526      5529      5530
      5527      5526      5529      5531      5527      5526      5529      5532
      5528      5526      5529      5530      5528      5526      5529      5531
      5528      5526      5529      5532      5529      5532      5535      5536
      5529      5532      5535      5537      5529      5532      5535      5538
      5530      5529      5532      5533      5530      5529      5532      5534
      5530      5529      5532      5535      5531      5529      5532      5533
      5531      5529      5532      5534      5531      5529      5532      5535
      5532      5535      5538      5539      5532      5535      5538      5540
      5532      5535      5538      5541      5533      5532      5535      5536
      5533      5532      5535      5537      5533      5532      5535      5538
      5534      5532      5535      5536      5534      5532      5535      5537
      5534      5532      5535      5538      5535      5538      5541      5542
      5535      5538      5541      5543      5535      5538      5541      5544
      5536      5535      5538      5539      5536      5535      5538      5540
      5536      5535      5538      5541      5537      5535      5538      5539
      5537      5535      5538      5540      5537      5535      5538      5541
      5538      5541      5544      5545      5538      5541      5544      5546
      5538      5541      5544      5547      5539      5538      5541      5542
      5539      5538      5541      5543      5539      5538      5541      5544
      5540      5538      5541      5542      5540      5538      5541      5543
      5540      5538      5541      5544      5542      5541      5544      5545
      5542      5541      5544      5546      5542      5541      5544      5547
      5543      5541      5544      5545      5543      5541      5544      5546
      5543      5541      5544      5547      5548      5551      5554      5555
      5548      5551      5554      5556      5548      5551      5554      5557
      5549      5548      5551      5552      5549      5548      5551      5553
      5549      5548      5551      5554      5550      5548      5551      5552
      5550      5548      5551      5553      5550      5548      5551      5554
      5551      5554      5557      5558      5551      5554      5557      5559
      5551      5554      5557      5560      5552      5551      5554      5555
      5552      5551      5554      5556      5552      5551      5554      5557
      5553      5551      5554      5555      5553      5551      5554      5556
      5553      5551      5554      5557      5554      5557      5560      5561
      5554      5557      5560      5562      5554      5557      5560      5563
      5555      5554      5557      5558      5555      5554      5557      5559
      5555      5554      5557      5560      5556      5554      5557      5558
      5556      5554      5557      5559      5556      5554      5557      5560
      5557      5560      5563      5564      5557      5560      5563      5565
      5557      5560      5563      5566      5558      5557      5560      5561
      5558      5557      5560      5562      5558      5557      5560      5563
      5559      5557      5560      5561      5559      5557      5560      5562
      5559      5557      5560      5563      5560      5563      5566      5567
      5560      5563      5566      5568      5560      5563      5566      5569
      5561      5560      5563      5564      5561      5560      5563      5565
      5561      5560      5563      5566      5562      5560      5563      5564
      5562      5560      5563      5565      5562      5560      5563      5566
      5563      5566      5569      5570      5563      5566      5569      5571
      5563      5566      5569      5572      5564      5563      5566      5567
      5564      5563      5566      5568      5564      5563      5566      5569
      5565      5563      5566      5567      5565      5563      5566      5568
      5565      5563      5566      5569      5566      5569      5572      5573
      5566      5569      5572      5574      5566      5569      5572      5575
      5567      5566      5569      5570      5567      5566      5569      5571
      5567      5566      5569      5572      5568      5566      5569      5570
      5568      5566      5569      5571      5568      5566      5569      5572
      5569      5572      5575      5576      5569      5572      5575      5577
      5569      5572      5575      5578      5570      5569      5572      5573
      5570      5569      5572      5574      5570      5569      5572      5575
      5571      5569      5572      5573      5571      5569      5572      5574
      5571      5569      5572      5575      5572      5575      5578      5579
      5572      5575      5578      5580      5572      5575      5578      5581
      5573      5572      5575      5576      5573      5572      5575      5577
      5573      5572      5575      5578      5574      5572      5575      5576
      5574      5572      5575      5577      5574      5572      5575      5578
      5575      5578      5581      5582      5575      5578      5581      5583
      5575      5578      5581      5584      5576      5575      5578      5579
      5576      5575      5578      5580      5576      5575      5578      5581
      5577      5575      5578      5579      5577      5575      5578      5580
      5577      5575      5578      5581      5578      5581      5584      5585
      5578      5581      5584      5586      5578      5581      5584      5587
      5579      5578      5581      5582      5579      5578      5581      5583
      5579      5578      5581      5584      5580      5578      5581      5582
      5580      5578      5581      5583      5580      5578      5581      5584
      5581      5584      5587      5588      5581      5584      5587      5589
      5581      5584      5587      5590      5582      5581      5584      5585
      5582      5581      5584      5586      5582      5581      5584      5587
      5583      5581      5584      5585      5583      5581      5584      5586
      5583      5581      5584      5587      5585      5584      5587      5588
      5585      5584      5587      5589      5585      5584      5587      5590
      5586      5584      5587      5588      5586      5584      5587      5589
      5586      5584      5587      5590      5591      5604      5607      5608
      5591      5604      5607      5609      5591      5604      5607      5614
      5592      5591      5596      5597      5592      5591      5596      5598
      5592      5591      5596      5599      5592      5591      5600      5601
      5592      5591      5600      5602      5592      5591      5600      5603
      5592      5591      5604      5605      5592      5591      5604      5606
      5592      5591      5604      5607      5593      5592      5591      5596
      5593      5592      5591      5600      5593      5592      5591      5604
      5594      5592      5591      5596      5594      5592      5591      5600
      5594      5592      5591      5604      5595      5592      5591      5596
      5595      5592      5591      5600      5595      5592      5591      5604
      5596      5591      5600      5601      5596      5591      5600      5602
      5596      5591      5600      5603      5596      5591      5604      5605
      5596      5591      5604      5606      5596      5591      5604      5607
      5597      5596      5591      5600      5597      5596      5591      5604
      5598      5596      5591      5600      5598      5596      5591      5604
      5599      5596      5591      5600      5599      5596      5591      5604
      5600      5591      5604      5605      5600      5591      5604      5606
      5600      5591      5604      5607      5601      5600      5591      5604
      5602      5600      5591      5604      5603      5600      5591      5604
      5604      5607      5614      5610      5605      5604      5607      5608
      5605      5604      5607      5609      5605      5604      5607      5614
      5606      5604      5607      5608      5606      5604      5607      5609
      5606      5604      5607      5614      5607      5614      5610      5611
      5607      5614      5610      5612      5607      5614      5610      5613
      5608      5607      5614      5610      5609      5607      5614      5610
      5610      5613      5615      5616      5610      5613      5615      5617
      5610      5613      5615      5618      5611      5610      5613      5615
      5612      5610      5613      5615      5613      5615      5618      5619
      5613      5615      5618      5620      5613      5615      5618      5626
      5614      5610      5613      5615      5615      5618      5620      5621
      5615      5618      5626      5627      5615      5618      5626      5628
      5615      5618      5626      5629      5616      5615      5618      5619
      5616      5615      5618      5620      5616      5615      5618      5626
      5617      5615      5618      5619      5617      5615      5618      5620
      5617      5615      5618      5626      5618      5620      5621      5622
      5618      5620      5621      5623      5618      5626      5629      5630
      5619      5618      5620      5621      5619      5618      5626      5627
      5619      5618      5626      5628      5619      5618      5626      5629
      5620      5618      5626      5627      5620      5618      5626      5628
      5620      5618      5626      5629      5620      5621      5623      5624
      5620      5621      5623      5625      5620      5621      5623      5635
      5621      5620      5618      5626      5621      5623      5635      5636
      5621      5623      5635      5637      5621      5623      5635      5638
      5622      5621      5623      5624      5622      5621      5623      5625
      5622      5621      5623      5635      5623      5635      5638      5639
      5623      5635      5638      5640      5623      5635      5638      5641
      5624      5623      5635      5636      5624      5623      5635      5637
      5624      5623      5635      5638      5625      5623      5635      5636
      5625      5623      5635      5637      5625      5623      5635      5638
      5626      5629      5630      5631      5626      5629      5630      5632
      5627      5626      5629      5630      5628      5626      5629      5630
      5629      5630      5632      5633      5629      5630      5632      5634
      5629      5630      5632      5678      5630      5632      5678      5679
      5630      5632      5678      5680      5630      5632      5678      5681
      5631      5630      5632      5633      5631      5630      5632      5634
      5631      5630      5632      5678      5632      5678      5681      5682
      5632      5678      5681      5683      5632      5678      5681      5684
      5633      5632      5678      5679      5633      5632      5678      5680
      5633      5632      5678      5681      5634      5632      5678      5679
      5634      5632      5678      5680      5634      5632      5678      5681
      5635      5638      5641      5642      5635      5638      5641      5643
      5635      5638      5641      5644      5636      5635      5638      5639
      5636      5635      5638      5640      5636      5635      5638      5641
      5637      5635      5638      5639      5637      5635      5638      5640
      5637      5635      5638      5641      5638      5641      5644      5645
      5638      5641      5644      5646      5638      5641      5644      5647
      5639      5638      5641      5642      5639      5638      5641      5643
      5639      5638      5641      5644      5640      5638      5641      5642
      5640      5638      5641      5643      5640      5638      5641      5644
      5641      5644      5647      5648      5641      5644      5647      5649
      5641      5644      5647      5650      5642      5641      5644      5645
      5642      5641      5644      5646      5642      5641      5644      5647
      5643      5641      5644      5645      5643      5641      5644      5646
      5643      5641      5644      5647      5644      5647      5650      5651
      5644      5647      5650      5652      5644      5647      5650      5653
      5645      5644      5647      5648      5645      5644      5647      5649
      5645      5644      5647      5650      5646      5644      5647      5648
      5646      5644      5647      5649      5646      5644      5647      5650
      5647      5650      5653      5654      5647      5650      5653      5655
      5647      5650      5653      5656      5648      5647      5650      5651
      5648      5647      5650      5652      5648      5647      5650      5653
      5649      5647      5650      5651      5649      5647      5650      5652
      5649      5647      5650      5653      5650      5653      5656      5657
      5650      5653      5656      5658      5650      5653      5656      5659
      5651      5650      5653      5654      5651      5650      5653      5655
      5651      5650      5653      5656      5652      5650      5653      5654
      5652      5650      5653      5655      5652      5650      5653      5656
      5653      5656      5659      5660      5653      5656      5659      5661
      5653      5656      5659      5662      5654      5653      5656      5657
      5654      5653      5656      5658      5654      5653      5656      5659
      5655      5653      5656      5657      5655      5653      5656      5658
      5655      5653      5656      5659      5656      5659      5662      5663
      5656      5659      5662      5664      5656      5659      5662      5665
      5657      5656      5659      5660      5657      5656      5659      5661
      5657      5656      5659      5662      5658      5656      5659      5660
      5658      5656      5659      5661      5658      5656      5659      5662
      5659      5662      5665      5666      5659      5662      5665      5667
      5659      5662      5665      5668      5660      5659      5662      5663
      5660      5659      5662      5664      5660      5659      5662      5665
      5661      5659      5662      5663      5661      5659      5662      5664
      5661      5659      5662      5665      5662      5665      5668      5669
      5662      5665      5668      5670      5662      5665      5668      5671
      5663      5662      5665      5666      5663      5662      5665      5667
      5663      5662      5665      5668      5664      5662      5665      5666
      5664      5662      5665      5667      5664      5662      5665      5668
      5665      5668      5671      5672      5665      5668      5671      5673
      5665      5668      5671      5674      5666      5665      5668      5669
      5666      5665      5668      5670      5666      5665      5668      5671
      5667      5665      5668      5669      5667      5665      5668      5670
      5667      5665      5668      5671      5668      5671      5674      5675
      5668      5671      5674      5676      5668      5671      5674      5677
      5669      5668      5671      5672      5669      5668      5671      5673
      5669      5668      5671      5674      5670      5668      5671      5672
      5670      5668      5671      5673      5670      5668      5671      5674
      5672      5671      5674      5675      5672      5671      5674      5676
      5672      5671      5674      5677      5673      5671      5674      5675
      5673      5671      5674      5676      5673      5671      5674      5677
      5678      5681      5684      5685      5678      5681      5684      5686
      5678      5681      5684      5687      5679      5678      5681      5682
      5679      5678      5681      5683      5679      5678      5681      5684
      5680      5678      5681      5682      5680      5678      5681      5683
      5680      5678      5681      5684      5681      5684      5687      5688
      5681      5684      5687      5689      5681      5684      5687      5690
      5682      5681      5684      5685      5682      5681      5684      5686
      5682      5681      5684      5687      5683      5681      5684      5685
      5683      5681      5684      5686      5683      5681      5684      5687
      5684      5687      5690      5691      5684      5687      5690      5692
      5684      5687      5690      5693      5685      5684      5687      5688
      5685      5684      5687      5689      5685      5684      5687      5690
      5686      5684      5687      5688      5686      5684      5687      5689
      5686      5684      5687      5690      5687      5690      5693      5694
      5687      5690      5693      5695      5687      5690      5693      5696
      5688      5687      5690      5691      5688      5687      5690      5692
      5688      5687      5690      5693      5689      5687      5690      5691
      5689      5687      5690      5692      5689      5687      5690      5693
      5690      5693      5696      5697      5690      5693      5696      5698
      5690      5693      5696      5699      5691      5690      5693      5694
      5691      5690      5693      5695      5691      5690      5693      5696
      5692      5690      5693      5694      5692      5690      5693      5695
      5692      5690      5693      5696      5693      5696      5699      5700
      5693      5696      5699      5701      5693      5696      5699      5702
      5694      5693      5696      5697      5694      5693      5696      5698
      5694      5693      5696      5699      5695      5693      5696      5697
      5695      5693      5696      5698      5695      5693      5696      5699
      5696      5699      5702      5703      5696      5699      5702      5704
      5696      5699      5702      5705      5697      5696      5699      5700
      5697      5696      5699      5701      5697      5696      5699      5702
      5698      5696      5699      5700      5698      5696      5699      5701
      5698      5696      5699      5702      5699      5702      5705      5706
      5699      5702      5705      5707      5699      5702      5705      5708
      5700      5699      5702      5703      5700      5699      5702      5704
      5700      5699      5702      5705      5701      5699      5702      5703
      5701      5699      5702      5704      5701      5699      5702      5705
      5702      5705      5708      5709      5702      5705      5708      5710
      5702      5705      5708      5711      5703      5702      5705      5706
      5703      5702      5705      5707      5703      5702      5705      5708
      5704      5702      5705      5706      5704      5702      5705      5707
      5704      5702      5705      5708      5705      5708      5711      5712
      5705      5708      5711      5713      5705      5708      5711      5714
      5706      5705      5708      5709      5706      5705      5708      5710
      5706      5705      5708      5711      5707      5705      5708      5709
      5707      5705      5708      5710      5707      5705      5708      5711
      5708      5711      5714      5715      5708      5711      5714      5716
      5708      5711      5714      5717      5709      5708      5711      5712
      5709      5708      5711      5713      5709      5708      5711      5714
      5710      5708      5711      5712      5710      5708      5711      5713
      5710      5708      5711      5714      5711      5714      5717      5718
      5711      5714      5717      5719      5711      5714      5717      5720
      5712      5711      5714      5715      5712      5711      5714      5716
      5712      5711      5714      5717      5713      5711      5714      5715
      5713      5711      5714      5716      5713      5711      5714      5717
      5715      5714      5717      5718      5715      5714      5717      5719
      5715      5714      5717      5720      5716      5714      5717      5718
      5716      5714      5717      5719      5716      5714      5717      5720
      5721      5734      5737      5738      5721      5734      5737      5739
      5721      5734      5737      5744      5722      5721      5726      5727
      5722      5721      5726      5728      5722      5721      5726      5729
      5722      5721      5730      5731      5722      5721      5730      5732
      5722      5721      5730      5733      5722      5721      5734      5735
      5722      5721      5734      5736      5722      5721      5734      5737
      5723      5722      5721      5726      5723      5722      5721      5730
      5723      5722      5721      5734      5724      5722      5721      5726
      5724      5722      5721      5730      5724      5722      5721      5734
      5725      5722      5721      5726      5725      5722      5721      5730
      5725      5722      5721      5734      5726      5721      5730      5731
      5726      5721      5730      5732      5726      5721      5730      5733
      5726      5721      5734      5735      5726      5721      5734      5736
      5726      5721      5734      5737      5727      5726      5721      5730
      5727      5726      5721      5734      5728      5726      5721      5730
      5728      5726      5721      5734      5729      5726      5721      5730
      5729      5726      5721      5734      5730      5721      5734      5735
      5730      5721      5734      5736      5730      5721      5734      5737
      5731      5730      5721      5734      5732      5730      5721      5734
      5733      5730      5721      5734      5734      5737      5744      5740
      5735      5734      5737      5738      5735      5734      5737      5739
      5735      5734      5737      5744      5736      5734      5737      5738
      5736      5734      5737      5739      5736      5734      5737      5744
      5737      5744      5740      5741      5737      5744      5740      5742
      5737      5744      5740      5743      5738      5737      5744      5740
      5739      5737      5744      5740      5740      5743      5745      5746
      5740      5743      5745      5747      5740      5743      5745      5748
      5741      5740      5743      5745      5742      5740      5743      5745
      5743      5745      5748      5749      5743      5745      5748      5750
      5743      5745      5748      5756      5744      5740      5743      5745
      5745      5748      5750      5751      5745      5748      5756      5757
      5745      5748      5756      5758      5745      5748      5756      5759
      5746      5745      5748      5749      5746      5745      5748      5750
      5746      5745      5748      5756      5747      5745      5748      5749
      5747      5745      5748      5750      5747      5745      5748      5756
      5748      5750      5751      5752      5748      5750      5751      5753
      5748      5756      5759      5760      5749      5748      5750      5751
      5749      5748      5756      5757      5749      5748      5756      5758
      5749      5748      5756      5759      5750      5748      5756      5757
      5750      5748      5756      5758      5750      5748      5756      5759
      5750      5751      5753      5754      5750      5751      5753      5755
      5750      5751      5753      5765      5751      5750      5748      5756
      5751      5753      5765      5766      5751      5753      5765      5767
      5751      5753      5765      5768      5752      5751      5753      5754
      5752      5751      5753      5755      5752      5751      5753      5765
      5753      5765      5768      5769      5753      5765      5768      5770
      5753      5765      5768      5771      5754      5753      5765      5766
      5754      5753      5765      5767      5754      5753      5765      5768
      5755      5753      5765      5766      5755      5753      5765      5767
      5755      5753      5765      5768      5756      5759      5760      5761
      5756      5759      5760      5762      5757      5756      5759      5760
      5758      5756      5759      5760      5759      5760      5762      5763
      5759      5760      5762      5764      5759      5760      5762      5808
      5760      5762      5808      5809      5760      5762      5808      5810
      5760      5762      5808      5811      5761      5760      5762      5763
      5761      5760      5762      5764      5761      5760      5762      5808
      5762      5808      5811      5812      5762      5808      5811      5813
      5762      5808      5811      5814      5763      5762      5808      5809
      5763      5762      5808      5810      5763      5762      5808      5811
      5764      5762      5808      5809      5764      5762      5808      5810
      5764      5762      5808      5811      5765      5768      5771      5772
      5765      5768      5771      5773      5765      5768      5771      5774
      5766      5765      5768      5769      5766      5765      5768      5770
      5766      5765      5768      5771      5767      5765      5768      5769
      5767      5765      5768      5770      5767      5765      5768      5771
      5768      5771      5774      5775      5768      5771      5774      5776
      5768      5771      5774      5777      5769      5768      5771      5772
      5769      5768      5771      5773      5769      5768      5771      5774
      5770      5768      5771      5772      5770      5768      5771      5773
      5770      5768      5771      5774      5771      5774      5777      5778
      5771      5774      5777      5779      5771      5774      5777      5780
      5772      5771      5774      5775      5772      5771      5774      5776
      5772      5771      5774      5777      5773      5771      5774      5775
      5773      5771      5774      5776      5773      5771      5774      5777
      5774      5777      5780      5781      5774      5777      5780      5782
      5774      5777      5780      5783      5775      5774      5777      5778
      5775      5774      5777      5779      5775      5774      5777      5780
      5776      5774      5777      5778      5776      5774      5777      5779
      5776      5774      5777      5780      5777      5780      5783      5784
      5777      5780      5783      5785      5777      5780      5783      5786
      5778      5777      5780      5781      5778      5777      5780      5782
      5778      5777      5780      5783      5779      5777      5780      5781
      5779      5777      5780      5782      5779      5777      5780      5783
      5780      5783      5786      5787      5780      5783      5786      5788
      5780      5783      5786      5789      5781      5780      5783      5784
      5781      5780      5783      5785      5781      5780      5783      5786
      5782      5780      5783      5784      5782      5780      5783      5785
      5782      5780      5783      5786      5783      5786      5789      5790
      5783      5786      5789      5791      5783      5786      5789      5792
      5784      5783      5786      5787      5784      5783      5786      5788
      5784      5783      5786      5789      5785      5783      5786      5787
      5785      5783      5786      5788      5785      5783      5786      5789
      5786      5789      5792      5793      5786      5789      5792      5794
      5786      5789      5792      5795      5787      5786      5789      5790
      5787      5786      5789      5791      5787      5786      5789      5792
      5788      5786      5789      5790      5788      5786      5789      5791
      5788      5786      5789      5792      5789      5792      5795      5796
      5789      5792      5795      5797      5789      5792      5795      5798
      5790      5789      5792      5793      5790      5789      5792      5794
      5790      5789      5792      5795      5791      5789      5792      5793
      5791      5789      5792      5794      5791      5789      5792      5795
      5792      5795      5798      5799      5792      5795      5798      5800
      5792      5795      5798      5801      5793      5792      5795      5796
      5793      5792      5795      5797      5793      5792      5795      5798
      5794      5792      5795      5796      5794      5792      5795      5797
      5794      5792      5795      5798      5795      5798      5801      5802
      5795      5798      5801      5803      5795      5798      5801      5804
      5796      5795      5798      5799      5796      5795      5798      5800
      5796      5795      5798      5801      5797      5795      5798      5799
      5797      5795      5798      5800      5797      5795      5798      5801
      5798      5801      5804      5805      5798      5801      5804      5806
      5798      5801      5804      5807      5799      5798      5801      5802
      5799      5798      5801      5803      5799      5798      5801      5804
      5800      5798      5801      5802      5800      5798      5801      5803
      5800      5798      5801      5804      5802      5801      5804      5805
      5802      5801      5804      5806      5802      5801      5804      5807
      5803      5801      5804      5805      5803      5801      5804      5806
      5803      5801      5804      5807      5808      5811      5814      5815
      5808      5811      5814      5816      5808      5811      5814      5817
      5809      5808      5811      5812      5809      5808      5811      5813
      5809      5808      5811      5814      5810      5808      5811      5812
      5810      5808      5811      5813      5810      5808      5811      5814
      5811      5814      5817      5818      5811      5814      5817      5819
      5811      5814      5817      5820      5812      5811      5814      5815
      5812      5811      5814      5816      5812      5811      5814      5817
      5813      5811      5814      5815      5813      5811      5814      5816
      5813      5811      5814      5817      5814      5817      5820      5821
      5814      5817      5820      5822      5814      5817      5820      5823
      5815      5814      5817      5818      5815      5814      5817      5819
      5815      5814      5817      5820      5816      5814      5817      5818
      5816      5814      5817      5819      5816      5814      5817      5820
      5817      5820      5823      5824      5817      5820      5823      5825
      5817      5820      5823      5826      5818      5817      5820      5821
      5818      5817      5820      5822      5818      5817      5820      5823
      5819      5817      5820      5821      5819      5817      5820      5822
      5819      5817      5820      5823      5820      5823      5826      5827
      5820      5823      5826      5828      5820      5823      5826      5829
      5821      5820      5823      5824      5821      5820      5823      5825
      5821      5820      5823      5826      5822      5820      5823      5824
      5822      5820      5823      5825      5822      5820      5823      5826
      5823      5826      5829      5830      5823      5826      5829      5831
      5823      5826      5829      5832      5824      5823      5826      5827
      5824      5823      5826      5828      5824      5823      5826      5829
      5825      5823      5826      5827      5825      5823      5826      5828
      5825      5823      5826      5829      5826      5829      5832      5833
      5826      5829      5832      5834      5826      5829      5832      5835
      5827      5826      5829      5830      5827      5826      5829      5831
      5827      5826      5829      5832      5828      5826      5829      5830
      5828      5826      5829      5831      5828      5826      5829      5832
      5829      5832      5835      5836      5829      5832      5835      5837
      5829      5832      5835      5838      5830      5829      5832      5833
      5830      5829      5832      5834      5830      5829      5832      5835
      5831      5829      5832      5833      5831      5829      5832      5834
      5831      5829      5832      5835      5832      5835      5838      5839
      5832      5835      5838      5840      5832      5835      5838      5841
      5833      5832      5835      5836      5833      5832      5835      5837
      5833      5832      5835      5838      5834      5832      5835      5836
      5834      5832      5835      5837      5834      5832      5835      5838
      5835      5838      5841      5842      5835      5838      5841      5843
      5835      5838      5841      5844      5836      5835      5838      5839
      5836      5835      5838      5840      5836      5835      5838      5841
      5837      5835      5838      5839      5837      5835      5838      5840
      5837      5835      5838      5841      5838      5841      5844      5845
      5838      5841      5844      5846      5838      5841      5844      5847
      5839      5838      5841      5842      5839      5838      5841      5843
      5839      5838      5841      5844      5840      5838      5841      5842
      5840      5838      5841      5843      5840      5838      5841      5844
      5841      5844      5847      5848      5841      5844      5847      5849
      5841      5844      5847      5850      5842      5841      5844      5845
      5842      5841      5844      5846      5842      5841      5844      5847
      5843      5841      5844      5845      5843      5841      5844      5846
      5843      5841      5844      5847      5845      5844      5847      5848
      5845      5844      5847      5849      5845      5844      5847      5850
      5846      5844      5847      5848      5846      5844      5847      5849
      5846      5844      5847      5850      5851      5864      5867      5868
      5851      5864      5867      5869      5851      5864      5867      5874
      5852      5851      5856      5857      5852      5851      5856      5858
      5852      5851      5856      5859      5852      5851      5860      5861
      5852      5851      5860      5862      5852      5851      5860      5863
      5852      5851      5864      5865      5852      5851      5864      5866
      5852      5851      5864      5867      5853      5852      5851      5856
      5853      5852      5851      5860      5853      5852      5851      5864
      5854      5852      5851      5856      5854      5852      5851      5860
      5854      5852      5851      5864      5855      5852      5851      5856
      5855      5852      5851      5860      5855      5852      5851      5864
      5856      5851      5860      5861      5856      5851      5860      5862
      5856      5851      5860      5863      5856      5851      5864      5865
      5856      5851      5864      5866      5856      5851      5864      5867
      5857      5856      5851      5860      5857      5856      5851      5864
      5858      5856      5851      5860      5858      5856      5851      5864
      5859      5856      5851      5860      5859      5856      5851      5864
      5860      5851      5864      5865      5860      5851      5864      5866
      5860      5851      5864      5867      5861      5860      5851      5864
      5862      5860      5851      5864      5863      5860      5851      5864
      5864      5867      5874      5870      5865      5864      5867      5868
      5865      5864      5867      5869      5865      5864      5867      5874
      5866      5864      5867      5868      5866      5864      5867      5869
      5866      5864      5867      5874      5867      5874      5870      5871
      5867      5874      5870      5872      5867      5874      5870      5873
      5868      5867      5874      5870      5869      5867      5874      5870
      5870      5873      5875      5876      5870      5873      5875      5877
      5870      5873      5875      5878      5871      5870      5873      5875
      5872      5870      5873      5875      5873      5875      5878      5879
      5873      5875      5878      5880      5873      5875      5878      5886
      5874      5870      5873      5875      5875      5878      5880      5881
      5875      5878      5886      5887      5875      5878      5886      5888
      5875      5878      5886      5889      5876      5875      5878      5879
      5876      5875      5878      5880      5876      5875      5878      5886
      5877      5875      5878      5879      5877      5875      5878      5880
      5877      5875      5878      5886      5878      5880      5881      5882
      5878      5880      5881      5883      5878      5886      5889      5890
      5879      5878      5880      5881      5879      5878      5886      5887
      5879      5878      5886      5888      5879      5878      5886      5889
      5880      5878      5886      5887      5880      5878      5886      5888
      5880      5878      5886      5889      5880      5881      5883      5884
      5880      5881      5883      5885      5880      5881      5883      5895
      5881      5880      5878      5886      5881      5883      5895      5896
      5881      5883      5895      5897      5881      5883      5895      5898
      5882      5881      5883      5884      5882      5881      5883      5885
      5882      5881      5883      5895      5883      5895      5898      5899
      5883      5895      5898      5900      5883      5895      5898      5901
      5884      5883      5895      5896      5884      5883      5895      5897
      5884      5883      5895      5898      5885      5883      5895      5896
      5885      5883      5895      5897      5885      5883      5895      5898
      5886      5889      5890      5891      5886      5889      5890      5892
      5887      5886      5889      5890      5888      5886      5889      5890
      5889      5890      5892      5893      5889      5890      5892      5894
      5889      5890      5892      5938      5890      5892      5938      5939
      5890      5892      5938      5940      5890      5892      5938      5941
      5891      5890      5892      5893      5891      5890      5892      5894
      5891      5890      5892      5938      5892      5938      5941      5942
      5892      5938      5941      5943      5892      5938      5941      5944
      5893      5892      5938      5939      5893      5892      5938      5940
      5893      5892      5938      5941      5894      5892      5938      5939
      5894      5892      5938      5940      5894      5892      5938      5941
      5895      5898      5901      5902      5895      5898      5901      5903
      5895      5898      5901      5904      5896      5895      5898      5899
      5896      5895      5898      5900      5896      5895      5898      5901
      5897      5895      5898      5899      5897      5895      5898      5900
      5897      5895      5898      5901      5898      5901      5904      5905
      5898      5901      5904      5906      5898      5901      5904      5907
      5899      5898      5901      5902      5899      5898      5901      5903
      5899      5898      5901      5904      5900      5898      5901      5902
      5900      5898      5901      5903      5900      5898      5901      5904
      5901      5904      5907      5908      5901      5904      5907      5909
      5901      5904      5907      5910      5902      5901      5904      5905
      5902      5901      5904      5906      5902      5901      5904      5907
      5903      5901      5904      5905      5903      5901      5904      5906
      5903      5901      5904      5907      5904      5907      5910      5911
      5904      5907      5910      5912      5904      5907      5910      5913
      5905      5904      5907      5908      5905      5904      5907      5909
      5905      5904      5907      5910      5906      5904      5907      5908
      5906      5904      5907      5909      5906      5904      5907      5910
      5907      5910      5913      5914      5907      5910      5913      5915
      5907      5910      5913      5916      5908      5907      5910      5911
      5908      5907      5910      5912      5908      5907      5910      5913
      5909      5907      5910      5911      5909      5907      5910      5912
      5909      5907      5910      5913      5910      5913      5916      5917
      5910      5913      5916      5918      5910      5913      5916      5919
      5911      5910      5913      5914      5911      5910      5913      5915
      5911      5910      5913      5916      5912      5910      5913      5914
      5912      5910      5913      5915      5912      5910      5913      5916
      5913      5916      5919      5920      5913      5916      5919      5921
      5913      5916      5919      5922      5914      5913      5916      5917
      5914      5913      5916      5918      5914      5913      5916      5919
      5915      5913      5916      5917      5915      5913      5916      5918
      5915      5913      5916      5919      5916      5919      5922      5923
      5916      5919      5922      5924      5916      5919      5922      5925
      5917      5916      5919      5920      5917      5916      5919      5921
      5917      5916      5919      5922      5918      5916      5919      5920
      5918      5916      5919      5921      5918      5916      5919      5922
      5919      5922      5925      5926      5919      5922      5925      5927
      5919      5922      5925      5928      5920      5919      5922      5923
      5920      5919      5922      5924      5920      5919      5922      5925
      5921      5919      5922      5923      5921      5919      5922      5924
      5921      5919      5922      5925      5922      5925      5928      5929
      5922      5925      5928      5930      5922      5925      5928      5931
      5923      5922      5925      5926      5923      5922      5925      5927
      5923      5922      5925      5928      5924      5922      5925      5926
      5924      5922      5925      5927      5924      5922      5925      5928
      5925      5928      5931      5932      5925      5928      5931      5933
      5925      5928      5931      5934      5926      5925      5928      5929
      5926      5925      5928      5930      5926      5925      5928      5931
      5927      5925      5928      5929      5927      5925      5928      5930
      5927      5925      5928      5931      5928      5931      5934      5935
      5928      5931      5934      5936      5928      5931      5934      5937
      5929      5928      5931      5932      5929      5928      5931      5933
      5929      5928      5931      5934      5930      5928      5931      5932
      5930      5928      5931      5933      5930      5928      5931      5934
      5932      5931      5934      5935      5932      5931      5934      5936
      5932      5931      5934      5937      5933      5931      5934      5935
      5933      5931      5934      5936      5933      5931      5934      5937
      5938      5941      5944      5945      5938      5941      5944      5946
      5938      5941      5944      5947      5939      5938      5941      5942
      5939      5938      5941      5943      5939      5938      5941      5944
      5940      5938      5941      5942      5940      5938      5941      5943
      5940      5938      5941      5944      5941      5944      5947      5948
      5941      5944      5947      5949      5941      5944      5947      5950
      5942      5941      5944      5945      5942      5941      5944      5946
      5942      5941      5944      5947      5943      5941      5944      5945
      5943      5941      5944      5946      5943      5941      5944      5947
      5944      5947      5950      5951      5944      5947      5950      5952
      5944      5947      5950      5953      5945      5944      5947      5948
      5945      5944      5947      5949      5945      5944      5947      5950
      5946      5944      5947      5948      5946      5944      5947      5949
      5946      5944      5947      5950      5947      5950      5953      5954
      5947      5950      5953      5955      5947      5950      5953      5956
      5948      5947      5950      5951      5948      5947      5950      5952
      5948      5947      5950      5953      5949      5947      5950      5951
      5949      5947      5950      5952      5949      5947      5950      5953
      5950      5953      5956      5957      5950      5953      5956      5958
      5950      5953      5956      5959      5951      5950      5953      5954
      5951      5950      5953      5955      5951      5950      5953      5956
      5952      5950      5953      5954      5952      5950      5953      5955
      5952      5950      5953      5956      5953      5956      5959      5960
      5953      5956      5959      5961      5953      5956      5959      5962
      5954      5953      5956      5957      5954      5953      5956      5958
      5954      5953      5956      5959      5955      5953      5956      5957
      5955      5953      5956      5958      5955      5953      5956      5959
      5956      5959      5962      5963      5956      5959      5962      5964
      5956      5959      5962      5965      5957      5956      5959      5960
      5957      5956      5959      5961      5957      5956      5959      5962
      5958      5956      5959      5960      5958      5956      5959      5961
      5958      5956      5959      5962      5959      5962      5965      5966
      5959      5962      5965      5967      5959      5962      5965      5968
      5960      5959      5962      5963      5960      5959      5962      5964
      5960      5959      5962      5965      5961      5959      5962      5963
      5961      5959      5962      5964      5961      5959      5962      5965
      5962      5965      5968      5969      5962      5965      5968      5970
      5962      5965      5968      5971      5963      5962      5965      5966
      5963      5962      5965      5967      5963      5962      5965      5968
      5964      5962      5965      5966      5964      5962      5965      5967
      5964      5962      5965      5968      5965      5968      5971      5972
      5965      5968      5971      5973      5965      5968      5971      5974
      5966      5965      5968      5969      5966      5965      5968      5970
      5966      5965      5968      5971      5967      5965      5968      5969
      5967      5965      5968      5970      5967      5965      5968      5971
      5968      5971      5974      5975      5968      5971      5974      5976
      5968      5971      5974      5977      5969      5968      5971      5972
      5969      5968      5971      5973      5969      5968      5971      5974
      5970      5968      5971      5972      5970      5968      5971      5973
      5970      5968      5971      5974      5971      5974      5977      5978
      5971      5974      5977      5979      5971      5974      5977      5980
      5972      5971      5974      5975      5972      5971      5974      5976
      5972      5971      5974      5977      5973      5971      5974      5975
      5973      5971      5974      5976      5973      5971      5974      5977
      5975      5974      5977      5978      5975      5974      5977      5979
      5975      5974      5977      5980      5976      5974      5977      5978
      5976      5974      5977      5979      5976      5974      5977      5980
      5981      5994      5997      5998      5981      5994      5997      5999
      5981      5994      5997      6004      5982      5981      5986      5987
      5982      5981      5986      5988      5982      5981      5986      5989
      5982      5981      5990      5991      5982      5981      5990      5992
      5982      5981      5990      5993      5982      5981      5994      5995
      5982      5981      5994      5996      5982      5981      5994      5997
      5983      5982      5981      5986      5983      5982      5981      5990
      5983      5982      5981      5994      5984      5982      5981      5986
      5984      5982      5981      5990      5984      5982      5981      5994
      5985      5982      5981      5986      5985      5982      5981      5990
      5985      5982      5981      5994      5986      5981      5990      5991
      5986      5981      5990      5992      5986      5981      5990      5993
      5986      5981      5994      5995      5986      5981      5994      5996
      5986      5981      5994      5997      5987      5986      5981      5990
      5987      5986      5981      5994      5988      5986      5981      5990
      5988      5986      5981      5994      5989      5986      5981      5990
      5989      5986      5981      5994      5990      5981      5994      5995
      5990      5981      5994      5996      5990      5981      5994      5997
      5991      5990      5981      5994      5992      5990      5981      5994
      5993      5990      5981      5994      5994      5997      6004      6000
      5995      5994      5997      5998      5995      5994      5997      5999
      5995      5994      5997      6004      5996      5994      5997      5998
      5996      5994      5997      5999      5996      5994      5997      6004
      5997      6004      6000      6001      5997      6004      6000      6002
      5997      6004      6000      6003      5998      5997      6004      6000
      5999      5997      6004      6000      6000      6003      6005      6006
      6000      6003      6005      6007      6000      6003      6005      6008
      6001      6000      6003      6005      6002      6000      6003      6005
      6003      6005      6008      6009      6003      6005      6008      6010
      6003      6005      6008      6016      6004      6000      6003      6005
      6005      6008      6010      6011      6005      6008      6016      6017
      6005      6008      6016      6018      6005      6008      6016      6019
      6006      6005      6008      6009      6006      6005      6008      6010
      6006      6005      6008      6016      6007      6005      6008      6009
      6007      6005      6008      6010      6007      6005      6008      6016
      6008      6010      6011      6012      6008      6010      6011      6013
      6008      6016      6019      6020      6009      6008      6010      6011
      6009      6008      6016      6017      6009      6008      6016      6018
      6009      6008      6016      6019      6010      6008      6016      6017
      6010      6008      6016      6018      6010      6008      6016      6019
      6010      6011      6013      6014      6010      6011      6013      6015
      6010      6011      6013      6025      6011      6010      6008      6016
      6011      6013      6025      6026      6011      6013      6025      6027
      6011      6013      6025      6028      6012      6011      6013      6014
      6012      6011      6013      6015      6012      6011      6013      6025
      6013      6025      6028      6029      6013      6025      6028      6030
      6013      6025      6028      6031      6014      6013      6025      6026
      6014      6013      6025      6027      6014      6013      6025      6028
      6015      6013      6025      6026      6015      6013      6025      6027
      6015      6013      6025      6028      6016      6019      6020      6021
      6016      6019      6020      6022      6017      6016      6019      6020
      6018      6016      6019      6020      6019      6020      6022      6023
      6019      6020      6022      6024      6019      6020      6022      6068
      6020      6022      6068      6069      6020      6022      6068      6070
      6020      6022      6068      6071      6021      6020      6022      6023
      6021      6020      6022      6024      6021      6020      6022      6068
      6022      6068      6071      6072      6022      6068      6071      6073
      6022      6068      6071      6074      6023      6022      6068      6069
      6023      6022      6068      6070      6023      6022      6068      6071
      6024      6022      6068      6069      6024      6022      6068      6070
      6024      6022      6068      6071      6025      6028      6031      6032
      6025      6028      6031      6033      6025      6028      6031      6034
      6026      6025      6028      6029      6026      6025      6028      6030
      6026      6025      6028      6031      6027      6025      6028      6029
      6027      6025      6028      6030      6027      6025      6028      6031
      6028      6031      6034      6035      6028      6031      6034      6036
      6028      6031      6034      6037      6029      6028      6031      6032
      6029      6028      6031      6033      6029      6028      6031      6034
      6030      6028      6031      6032      6030      6028      6031      6033
      6030      6028      6031      6034      6031      6034      6037      6038
      6031      6034      6037      6039      6031      6034      6037      6040
      6032      6031      6034      6035      6032      6031      6034      6036
      6032      6031      6034      6037      6033      6031      6034      6035
      6033      6031      6034      6036      6033      6031      6034      6037
      6034      6037      6040      6041      6034      6037      6040      6042
      6034      6037      6040      6043      6035      6034      6037      6038
      6035      6034      6037      6039      6035      6034      6037      6040
      6036      6034      6037      6038      6036      6034      6037      6039
      6036      6034      6037      6040      6037      6040      6043      6044
      6037      6040      6043      6045      6037      6040      6043      6046
      6038      6037      6040      6041      6038      6037      6040      6042
      6038      6037      6040      6043      6039      6037      6040      6041
      6039      6037      6040      6042      6039      6037      6040      6043
      6040      6043      6046      6047      6040      6043      6046      6048
      6040      6043      6046      6049      6041      6040      6043      6044
      6041      6040      6043      6045      6041      6040      6043      6046
      6042      6040      6043      6044      6042      6040      6043      6045
      6042      6040      6043      6046      6043      6046      6049      6050
      6043      6046      6049      6051      6043      6046      6049      6052
      6044      6043      6046      6047      6044      6043      6046      6048
      6044      6043      6046      6049      6045      6043      6046      6047
      6045      6043      6046      6048      6045      6043      6046      6049
      6046      6049      6052      6053      6046      6049      6052      6054
      6046      6049      6052      6055      6047      6046      6049      6050
      6047      6046      6049      6051      6047      6046      6049      6052
      6048      6046      6049      6050      6048      6046      6049      6051
      6048      6046      6049      6052      6049      6052      6055      6056
      6049      6052      6055      6057      6049      6052      6055      6058
      6050      6049      6052      6053      6050      6049      6052      6054
      6050      6049      6052      6055      6051      6049      6052      6053
      6051      6049      6052      6054      6051      6049      6052      6055
      6052      6055      6058      6059      6052      6055      6058      6060
      6052      6055      6058      6061      6053      6052      6055      6056
      6053      6052      6055      6057      6053      6052      6055      6058
      6054      6052      6055      6056      6054      6052      6055      6057
      6054      6052      6055      6058      6055      6058      6061      6062
      6055      6058      6061      6063      6055      6058      6061      6064
      6056      6055      6058      6059      6056      6055      6058      6060
      6056      6055      6058      6061      6057      6055      6058      6059
      6057      6055      6058      6060      6057      6055      6058      6061
      6058      6061      6064      6065      6058      6061      6064      6066
      6058      6061      6064      6067      6059      6058      6061      6062
      6059      6058      6061      6063      6059      6058      6061      6064
      6060      6058      6061      6062      6060      6058      6061      6063
      6060      6058      6061      6064      6062      6061      6064      6065
      6062      6061      6064      6066      6062      6061      6064      6067
      6063      6061      6064      6065      6063      6061      6064      6066
      6063      6061      6064      6067      6068      6071      6074      6075
      6068      6071      6074      6076      6068      6071      6074      6077
      6069      6068      6071      6072      6069      6068      6071      6073
      6069      6068      6071      6074      6070      6068      6071      6072
      6070      6068      6071      6073      6070      6068      6071      6074
      6071      6074      6077      6078      6071      6074      6077      6079
      6071      6074      6077      6080      6072      6071      6074      6075
      6072      6071      6074      6076      6072      6071      6074      6077
      6073      6071      6074      6075      6073      6071      6074      6076
      6073      6071      6074      6077      6074      6077      6080      6081
      6074      6077      6080      6082      6074      6077      6080      6083
      6075      6074      6077      6078      6075      6074      6077      6079
      6075      6074      6077      6080      6076      6074      6077      6078
      6076      6074      6077      6079      6076      6074      6077      6080
      6077      6080      6083      6084      6077      6080      6083      6085
      6077      6080      6083      6086      6078      6077      6080      6081
      6078      6077      6080      6082      6078      6077      6080      6083
      6079      6077      6080      6081      6079      6077      6080      6082
      6079      6077      6080      6083      6080      6083      6086      6087
      6080      6083      6086      6088      6080      6083      6086      6089
      6081      6080      6083      6084      6081      6080      6083      6085
      6081      6080      6083      6086      6082      6080      6083      6084
      6082      6080      6083      6085      6082      6080      6083      6086
      6083      6086      6089      6090      6083      6086      6089      6091
      6083      6086      6089      6092      6084      6083      6086      6087
      6084      6083      6086      6088      6084      6083      6086      6089
      6085      6083      6086      6087      6085      6083      6086      6088
      6085      6083      6086      6089      6086      6089      6092      6093
      6086      6089      6092      6094      6086      6089      6092      6095
      6087      6086      6089      6090      6087      6086      6089      6091
      6087      6086      6089      6092      6088      6086      6089      6090
      6088      6086      6089      6091      6088      6086      6089      6092
      6089      6092      6095      6096      6089      6092      6095      6097
      6089      6092      6095      6098      6090      6089      6092      6093
      6090      6089      6092      6094      6090      6089      6092      6095
      6091      6089      6092      6093      6091      6089      6092      6094
      6091      6089      6092      6095      6092      6095      6098      6099
      6092      6095      6098      6100      6092      6095      6098      6101
      6093      6092      6095      6096      6093      6092      6095      6097
      6093      6092      6095      6098      6094      6092      6095      6096
      6094      6092      6095      6097      6094      6092      6095      6098
      6095      6098      6101      6102      6095      6098      6101      6103
      6095      6098      6101      6104      6096      6095      6098      6099
      6096      6095      6098      6100      6096      6095      6098      6101
      6097      6095      6098      6099      6097      6095      6098      6100
      6097      6095      6098      6101      6098      6101      6104      6105
      6098      6101      6104      6106      6098      6101      6104      6107
      6099      6098      6101      6102      6099      6098      6101      6103
      6099      6098      6101      6104      6100      6098      6101      6102
      6100      6098      6101      6103      6100      6098      6101      6104
      6101      6104      6107      6108      6101      6104      6107      6109
      6101      6104      6107      6110      6102      6101      6104      6105
      6102      6101      6104      6106      6102      6101      6104      6107
      6103      6101      6104      6105      6103      6101      6104      6106
      6103      6101      6104      6107      6105      6104      6107      6108
      6105      6104      6107      6109      6105      6104      6107      6110
      6106      6104      6107      6108      6106      6104      6107      6109
      6106      6104      6107      6110      6111      6124      6127      6128
      6111      6124      6127      6129      6111      6124      6127      6134
      6112      6111      6116      6117      6112      6111      6116      6118
      6112      6111      6116      6119      6112      6111      6120      6121
      6112      6111      6120      6122      6112      6111      6120      6123
      6112      6111      6124      6125      6112      6111      6124      6126
      6112      6111      6124      6127      6113      6112      6111      6116
      6113      6112      6111      6120      6113      6112      6111      6124
      6114      6112      6111      6116      6114      6112      6111      6120
      6114      6112      6111      6124      6115      6112      6111      6116
      6115      6112      6111      6120      6115      6112      6111      6124
      6116      6111      6120      6121      6116      6111      6120      6122
      6116      6111      6120      6123      6116      6111      6124      6125
      6116      6111      6124      6126      6116      6111      6124      6127
      6117      6116      6111      6120      6117      6116      6111      6124
      6118      6116      6111      6120      6118      6116      6111      6124
      6119      6116      6111      6120      6119      6116      6111      6124
      6120      6111      6124      6125      6120      6111      6124      6126
      6120      6111      6124      6127      6121      6120      6111      6124
      6122      6120      6111      6124      6123      6120      6111      6124
      6124      6127      6134      6130      6125      6124      6127      6128
      6125      6124      6127      6129      6125      6124      6127      6134
      6126      6124      6127      6128      6126      6124      6127      6129
      6126      6124      6127      6134      6127      6134      6130      6131
      6127      6134      6130      6132      6127      6134      6130      6133
      6128      6127      6134      6130      6129      6127      6134      6130
      6130      6133      6135      6136      6130      6133      6135      6137
      6130      6133      6135      6138      6131      6130      6133      6135
      6132      6130      6133      6135      6133      6135      6138      6139
      6133      6135      6138      6140      6133      6135      6138      6146
      6134      6130      6133      6135      6135      6138      6140      6141
      6135      6138      6146      6147      6135      6138      6146      6148
      6135      6138      6146      6149      6136      6135      6138      6139
      6136      6135      6138      6140      6136      6135      6138      6146
      6137      6135      6138      6139      6137      6135      6138      6140
      6137      6135      6138      6146      6138      6140      6141      6142
      6138      6140      6141      6143      6138      6146      6149      6150
      6139      6138      6140      6141      6139      6138      6146      6147
      6139      6138      6146      6148      6139      6138      6146      6149
      6140      6138      6146      6147      6140      6138      6146      6148
      6140      6138      6146      6149      6140      6141      6143      6144
      6140      6141      6143      6145      6140      6141      6143      6155
      6141      6140      6138      6146      6141      6143      6155      6156
      6141      6143      6155      6157      6141      6143      6155      6158
      6142      6141      6143      6144      6142      6141      6143      6145
      6142      6141      6143      6155      6143      6155      6158      6159
      6143      6155      6158      6160      6143      6155      6158      6161
      6144      6143      6155      6156      6144      6143      6155      6157
      6144      6143      6155      6158      6145      6143      6155      6156
      6145      6143      6155      6157      6145      6143      6155      6158
      6146      6149      6150      6151      6146      6149      6150      6152
      6147      6146      6149      6150      6148      6146      6149      6150
      6149      6150      6152      6153      6149      6150      6152      6154
      6149      6150      6152      6198      6150      6152      6198      6199
      6150      6152      6198      6200      6150      6152      6198      6201
      6151      6150      6152      6153      6151      6150      6152      6154
      6151      6150      6152      6198      6152      6198      6201      6202
      6152      6198      6201      6203      6152      6198      6201      6204
      6153      6152      6198      6199      6153      6152      6198      6200
      6153      6152      6198      6201      6154      6152      6198      6199
      6154      6152      6198      6200      6154      6152      6198      6201
      6155      6158      6161      6162      6155      6158      6161      6163
      6155      6158      6161      6164      6156      6155      6158      6159
      6156      6155      6158      6160      6156      6155      6158      6161
      6157      6155      6158      6159      6157      6155      6158      6160
      6157      6155      6158      6161      6158      6161      6164      6165
      6158      6161      6164      6166      6158      6161      6164      6167
      6159      6158      6161      6162      6159      6158      6161      6163
      6159      6158      6161      6164      6160      6158      6161      6162
      6160      6158      6161      6163      6160      6158      6161      6164
      6161      6164      6167      6168      6161      6164      6167      6169
      6161      6164      6167      6170      6162      6161      6164      6165
      6162      6161      6164      6166      6162      6161      6164      6167
      6163      6161      6164      6165      6163      6161      6164      6166
      6163      6161      6164      6167      6164      6167      6170      6171
      6164      6167      6170      6172      6164      6167      6170      6173
      6165      6164      6167      6168      6165      6164      6167      6169
      6165      6164      6167      6170      6166      6164      6167      6168
      6166      6164      6167      6169      6166      6164      6167      6170
      6167      6170      6173      6174      6167      6170      6173      6175
      6167      6170      6173      6176      6168      6167      6170      6171
      6168      6167      6170      6172      6168      6167      6170      6173
      6169      6167      6170      6171      6169      6167      6170      6172
      6169      6167      6170      6173      6170      6173      6176      6177
      6170      6173      6176      6178      6170      6173      6176      6179
      6171      6170      6173      6174      6171      6170      6173      6175
      6171      6170      6173      6176      6172      6170      6173      6174
      6172      6170      6173      6175      6172      6170      6173      6176
      6173      6176      6179      6180      6173      6176      6179      6181
      6173      6176      6179      6182      6174      6173      6176      6177
      6174      6173      6176      6178      6174      6173      6176      6179
      6175      6173      6176      6177      6175      6173      6176      6178
      6175      6173      6176      6179      6176      6179      6182      6183
      6176      6179      6182      6184      6176      6179      6182      6185
      6177      6176      6179      6180      6177      6176      6179      6181
      6177      6176      6179      6182      6178      6176      6179      6180
      6178      6176      6179      6181      6178      6176      6179      6182
      6179      6182      6185      6186      6179      6182      6185      6187
      6179      6182      6185      6188      6180      6179      6182      6183
      6180      6179      6182      6184      6180      6179      6182      6185
      6181      6179      6182      6183      6181      6179      6182      6184
      6181      6179      6182      6185      6182      6185      6188      6189
      6182      6185      6188      6190      6182      6185      6188      6191
      6183      6182      6185      6186      6183      6182      6185      6187
      6183      6182      6185      6188      6184      6182      6185      6186
      6184      6182      6185      6187      6184      6182      6185      6188
      6185      6188      6191      6192      6185      6188      6191      6193
      6185      6188      6191      6194      6186      6185      6188      6189
      6186      6185      6188      6190      6186      6185      6188      6191
      6187      6185      6188      6189      6187      6185      6188      6190
      6187      6185      6188      6191      6188      6191      6194      6195
      6188      6191      6194      6196      6188      6191      6194      6197
      6189      6188      6191      6192      6189      6188      6191      6193
      6189      6188      6191      6194      6190      6188      6191      6192
      6190      6188      6191      6193      6190      6188      6191      6194
      6192      6191      6194      6195      6192      6191      6194      6196
      6192      6191      6194      6197      6193      6191      6194      6195
      6193      6191      6194      6196      6193      6191      6194      6197
      6198      6201      6204      6205      6198      6201      6204      6206
      6198      6201      6204      6207      6199      6198      6201      6202
      6199      6198      6201      6203      6199      6198      6201      6204
      6200      6198      6201      6202      6200      6198      6201      6203
      6200      6198      6201      6204      6201      6204      6207      6208
      6201      6204      6207      6209      6201      6204      6207      6210
      6202      6201      6204      6205      6202      6201      6204      6206
      6202      6201      6204      6207      6203      6201      6204      6205
      6203      6201      6204      6206      6203      6201      6204      6207
      6204      6207      6210      6211      6204      6207      6210      6212
      6204      6207      6210      6213      6205      6204      6207      6208
      6205      6204      6207      6209      6205      6204      6207      6210
      6206      6204      6207      6208      6206      6204      6207      6209
      6206      6204      6207      6210      6207      6210      6213      6214
      6207      6210      6213      6215      6207      6210      6213      6216
      6208      6207      6210      6211      6208      6207      6210      6212
      6208      6207      6210      6213      6209      6207      6210      6211
      6209      6207      6210      6212      6209      6207      6210      6213
      6210      6213      6216      6217      6210      6213      6216      6218
      6210      6213      6216      6219      6211      6210      6213      6214
      6211      6210      6213      6215      6211      6210      6213      6216
      6212      6210      6213      6214      6212      6210      6213      6215
      6212      6210      6213      6216      6213      6216      6219      6220
      6213      6216      6219      6221      6213      6216      6219      6222
      6214      6213      6216      6217      6214      6213      6216      6218
      6214      6213      6216      6219      6215      6213      6216      6217
      6215      6213      6216      6218      6215      6213      6216      6219
      6216      6219      6222      6223      6216      6219      6222      6224
      6216      6219      6222      6225      6217      6216      6219      6220
      6217      6216      6219      6221      6217      6216      6219      6222
      6218      6216      6219      6220      6218      6216      6219      6221
      6218      6216      6219      6222      6219      6222      6225      6226
      6219      6222      6225      6227      6219      6222      6225      6228
      6220      6219      6222      6223      6220      6219      6222      6224
      6220      6219      6222      6225      6221      6219      6222      6223
      6221      6219      6222      6224      6221      6219      6222      6225
      6222      6225      6228      6229      6222      6225      6228      6230
      6222      6225      6228      6231      6223      6222      6225      6226
      6223      6222      6225      6227      6223      6222      6225      6228
      6224      6222      6225      6226      6224      6222      6225      6227
      6224      6222      6225      6228      6225      6228      6231      6232
      6225      6228      6231      6233      6225      6228      6231      6234
      6226      6225      6228      6229      6226      6225      6228      6230
      6226      6225      6228      6231      6227      6225      6228      6229
      6227      6225      6228      6230      6227      6225      6228      6231
      6228      6231      6234      6235      6228      6231      6234      6236
      6228      6231      6234      6237      6229      6228      6231      6232
      6229      6228      6231      6233      6229      6228      6231      6234
      6230      6228      6231      6232      6230      6228      6231      6233
      6230      6228      6231      6234      6231      6234      6237      6238
      6231      6234      6237      6239      6231      6234      6237      6240
      6232      6231      6234      6235      6232      6231      6234      6236
      6232      6231      6234      6237      6233      6231      6234      6235
      6233      6231      6234      6236      6233      6231      6234      6237
      6235      6234      6237      6238      6235      6234      6237      6239
      6235      6234      6237      6240      6236      6234      6237      6238
      6236      6234      6237      6239      6236      6234      6237      6240
      6241      6254      6257      6258      6241      6254      6257      6259
      6241      6254      6257      6264      6242      6241      6246      6247
      6242      6241      6246      6248      6242      6241      6246      6249
      6242      6241      6250      6251      6242      6241      6250      6252
      6242      6241      6250      6253      6242      6241      6254      6255
      6242      6241      6254      6256      6242      6241      6254      6257
      6243      6242      6241      6246      6243      6242      6241      6250
      6243      6242      6241      6254      6244      6242      6241      6246
      6244      6242      6241      6250      6244      6242      6241      6254
      6245      6242      6241      6246      6245      6242      6241      6250
      6245      6242      6241      6254      6246      6241      6250      6251
      6246      6241      6250      6252      6246      6241      6250      6253
      6246      6241      6254      6255      6246      6241      6254      6256
      6246      6241      6254      6257      6247      6246      6241      6250
      6247      6246      6241      6254      6248      6246      6241      6250
      6248      6246      6241      6254      6249      6246      6241      6250
      6249      6246      6241      6254      6250      6241      6254      6255
      6250      6241      6254      6256      6250      6241      6254      6257
      6251      6250      6241      6254      6252      6250      6241      6254
      6253      6250      6241      6254      6254      6257      6264      6260
      6255      6254      6257      6258      6255      6254      6257      6259
      6255      6254      6257      6264      6256      6254      6257      6258
      6256      6254      6257      6259      6256      6254      6257      6264
      6257      6264      6260      6261      6257      6264      6260      6262
      6257      6264      6260      6263      6258      6257      6264      6260
      6259      6257      6264      6260      6260      6263      6265      6266
      6260      6263      6265      6267      6260      6263      6265      6268
      6261      6260      6263      6265      6262      6260      6263      6265
      6263      6265      6268      6269      6263      6265      6268      6270
      6263      6265      6268      6276      6264      6260      6263      6265
      6265      6268      6270      6271      6265      6268      6276      6277
      6265      6268      6276      6278      6265      6268      6276      6279
      6266      6265      6268      6269      6266      6265      6268      6270
      6266      6265      6268      6276      6267      6265      6268      6269
      6267      6265      6268      6270      6267      6265      6268      6276
      6268      6270      6271      6272      6268      6270      6271      6273
      6268      6276      6279      6280      6269      6268      6270      6271
      6269      6268      6276      6277      6269      6268      6276      6278
      6269      6268      6276      6279      6270      6268      6276      6277
      6270      6268      6276      6278      6270      6268      6276      6279
      6270      6271      6273      6274      6270      6271      6273      6275
      6270      6271      6273      6285      6271      6270      6268      6276
      6271      6273      6285      6286      6271      6273      6285      6287
      6271      6273      6285      6288      6272      6271      6273      6274
      6272      6271      6273      6275      6272      6271      6273      6285
      6273      6285      6288      6289      6273      6285      6288      6290
      6273      6285      6288      6291      6274      6273      6285      6286
      6274      6273      6285      6287      6274      6273      6285      6288
      6275      6273      6285      6286      6275      6273      6285      6287
      6275      6273      6285      6288      6276      6279      6280      6281
      6276      6279      6280      6282      6277      6276      6279      6280
      6278      6276      6279      6280      6279      6280      6282      6283
      6279      6280      6282      6284      6279      6280      6282      6328
      6280      6282      6328      6329      6280      6282      6328      6330
      6280      6282      6328      6331      6281      6280      6282      6283
      6281      6280      6282      6284      6281      6280      6282      6328
      6282      6328      6331      6332      6282      6328      6331      6333
      6282      6328      6331      6334      6283      6282      6328      6329
      6283      6282      6328      6330      6283      6282      6328      6331
      6284      6282      6328      6329      6284      6282      6328      6330
      6284      6282      6328      6331      6285      6288      6291      6292
      6285      6288      6291      6293      6285      6288      6291      6294
      6286      6285      6288      6289      6286      6285      6288      6290
      6286      6285      6288      6291      6287      6285      6288      6289
      6287      6285      6288      6290      6287      6285      6288      6291
      6288      6291      6294      6295      6288      6291      6294      6296
      6288      6291      6294      6297      6289      6288      6291      6292
      6289      6288      6291      6293      6289      6288      6291      6294
      6290      6288      6291      6292      6290      6288      6291      6293
      6290      6288      6291      6294      6291      6294      6297      6298
      6291      6294      6297      6299      6291      6294      6297      6300
      6292      6291      6294      6295      6292      6291      6294      6296
      6292      6291      6294      6297      6293      6291      6294      6295
      6293      6291      6294      6296      6293      6291      6294      6297
      6294      6297      6300      6301      6294      6297      6300      6302
      6294      6297      6300      6303      6295      6294      6297      6298
      6295      6294      6297      6299      6295      6294      6297      6300
      6296      6294      6297      6298      6296      6294      6297      6299
      6296      6294      6297      6300      6297      6300      6303      6304
      6297      6300      6303      6305      6297      6300      6303      6306
      6298      6297      6300      6301      6298      6297      6300      6302
      6298      6297      6300      6303      6299      6297      6300      6301
      6299      6297      6300      6302      6299      6297      6300      6303
      6300      6303      6306      6307      6300      6303      6306      6308
      6300      6303      6306      6309      6301      6300      6303      6304
      6301      6300      6303      6305      6301      6300      6303      6306
      6302      6300      6303      6304      6302      6300      6303      6305
      6302      6300      6303      6306      6303      6306      6309      6310
      6303      6306      6309      6311      6303      6306      6309      6312
      6304      6303      6306      6307      6304      6303      6306      6308
      6304      6303      6306      6309      6305      6303      6306      6307
      6305      6303      6306      6308      6305      6303      6306      6309
      6306      6309      6312      6313      6306      6309      6312      6314
      6306      6309      6312      6315      6307      6306      6309      6310
      6307      6306      6309      6311      6307      6306      6309      6312
      6308      6306      6309      6310      6308      6306      6309      6311
      6308      6306      6309      6312      6309      6312      6315      6316
      6309      6312      6315      6317      6309      6312      6315      6318
      6310      6309      6312      6313      6310      6309      6312      6314
      6310      6309      6312      6315      6311      6309      6312      6313
      6311      6309      6312      6314      6311      6309      6312      6315
      6312      6315      6318      6319      6312      6315      6318      6320
      6312      6315      6318      6321      6313      6312      6315      6316
      6313      6312      6315      6317      6313      6312      6315      6318
      6314      6312      6315      6316      6314      6312      6315      6317
      6314      6312      6315      6318      6315      6318      6321      6322
      6315      6318      6321      6323      6315      6318      6321      6324
      6316      6315      6318      6319      6316      6315      6318      6320
      6316      6315      6318      6321      6317      6315      6318      6319
      6317      6315      6318      6320      6317      6315      6318      6321
      6318      6321      6324      6325      6318      6321      6324      6326
      6318      6321      6324      6327      6319      6318      6321      6322
      6319      6318      6321      6323      6319      6318      6321      6324
      6320      6318      6321      6322      6320      6318      6321      6323
      6320      6318      6321      6324      6322      6321      6324      6325
      6322      6321      6324      6326      6322      6321      6324      6327
      6323      6321      6324      6325      6323      6321      6324      6326
      6323      6321      6324      6327      6328      6331      6334      6335
      6328      6331      6334      6336      6328      6331      6334      6337
      6329      6328      6331      6332      6329      6328      6331      6333
      6329      6328      6331      6334      6330      6328      6331      6332
      6330      6328      6331      6333      6330      6328      6331      6334
      6331      6334      6337      6338      6331      6334      6337      6339
      6331      6334      6337      6340      6332      6331      6334      6335
      6332      6331      6334      6336      6332      6331      6334      6337
      6333      6331      6334      6335      6333      6331      6334      6336
      6333      6331      6334      6337      6334      6337      6340      6341
      6334      6337      6340      6342      6334      6337      6340      6343
      6335      6334      6337      6338      6335      6334      6337      6339
      6335      6334      6337      6340      6336      6334      6337      6338
      6336      6334      6337      6339      6336      6334      6337      6340
      6337      6340      6343      6344      6337      6340      6343      6345
      6337      6340      6343      6346      6338      6337      6340      6341
      6338      6337      6340      6342      6338      6337      6340      6343
      6339      6337      6340      6341      6339      6337      6340      6342
      6339      6337      6340      6343      6340      6343      6346      6347
      6340      6343      6346      6348      6340      6343      6346      6349
      6341      6340      6343      6344      6341      6340      6343      6345
      6341      6340      6343      6346      6342      6340      6343      6344
      6342      6340      6343      6345      6342      6340      6343      6346
      6343      6346      6349      6350      6343      6346      6349      6351
      6343      6346      6349      6352      6344      6343      6346      6347
      6344      6343      6346      6348      6344      6343      6346      6349
      6345      6343      6346      6347      6345      6343      6346      6348
      6345      6343      6346      6349      6346      6349      6352      6353
      6346      6349      6352      6354      6346      6349      6352      6355
      6347      6346      6349      6350      6347      6346      6349      6351
      6347      6346      6349      6352      6348      6346      6349      6350
      6348      6346      6349      6351      6348      6346      6349      6352
      6349      6352      6355      6356      6349      6352      6355      6357
      6349      6352      6355      6358      6350      6349      6352      6353
      6350      6349      6352      6354      6350      6349      6352      6355
      6351      6349      6352      6353      6351      6349      6352      6354
      6351      6349      6352      6355      6352      6355      6358      6359
      6352      6355      6358      6360      6352      6355      6358      6361
      6353      6352      6355      6356      6353      6352      6355      6357
      6353      6352      6355      6358      6354      6352      6355      6356
      6354      6352      6355      6357      6354      6352      6355      6358
      6355      6358      6361      6362      6355      6358      6361      6363
      6355      6358      6361      6364      6356      6355      6358      6359
      6356      6355      6358      6360      6356      6355      6358      6361
      6357      6355      6358      6359      6357      6355      6358      6360
      6357      6355      6358      6361      6358      6361      6364      6365
      6358      6361      6364      6366      6358      6361      6364      6367
      6359      6358      6361      6362      6359      6358      6361      6363
      6359      6358      6361      6364      6360      6358      6361      6362
      6360      6358      6361      6363      6360      6358      6361      6364
      6361      6364      6367      6368      6361      6364      6367      6369
      6361      6364      6367      6370      6362      6361      6364      6365
      6362      6361      6364      6366      6362      6361      6364      6367
      6363      6361      6364      6365      6363      6361      6364      6366
      6363      6361      6364      6367      6365      6364      6367      6368
      6365      6364      6367      6369      6365      6364      6367      6370
      6366      6364      6367      6368      6366      6364      6367      6369
      6366      6364      6367      6370      6371      6384      6387      6388
      6371      6384      6387      6389      6371      6384      6387      6394
      6372      6371      6376      6377      6372      6371      6376      6378
      6372      6371      6376      6379      6372      6371      6380      6381
      6372      6371      6380      6382      6372      6371      6380      6383
      6372      6371      6384      6385      6372      6371      6384      6386
      6372      6371      6384      6387      6373      6372      6371      6376
      6373      6372      6371      6380      6373      6372      6371      6384
      6374      6372      6371      6376      6374      6372      6371      6380
      6374      6372      6371      6384      6375      6372      6371      6376
      6375      6372      6371      6380      6375      6372      6371      6384
      6376      6371      6380      6381      6376      6371      6380      6382
      6376      6371      6380      6383      6376      6371      6384      6385
      6376      6371      6384      6386      6376      6371      6384      6387
      6377      6376      6371      6380      6377      6376      6371      6384
      6378      6376      6371      6380      6378      6376      6371      6384
      6379      6376      6371      6380      6379      6376      6371      6384
      6380      6371      6384      6385      6380      6371      6384      6386
      6380      6371      6384      6387      6381      6380      6371      6384
      6382      6380      6371      6384      6383      6380      6371      6384
      6384      6387      6394      6390      6385      6384      6387      6388
      6385      6384      6387      6389      6385      6384      6387      6394
      6386      6384      6387      6388      6386      6384      6387      6389
      6386      6384      6387      6394      6387      6394      6390      6391
      6387      6394      6390      6392      6387      6394      6390      6393
      6388      6387      6394      6390      6389      6387      6394      6390
      6390      6393      6395      6396      6390      6393      6395      6397
      6390      6393      6395      6398      6391      6390      6393      6395
      6392      6390      6393      6395      6393      6395      6398      6399
      6393      6395      6398      6400      6393      6395      6398      6406
      6394      6390      6393      6395      6395      6398      6400      6401
      6395      6398      6406      6407      6395      6398      6406      6408
      6395      6398      6406      6409      6396      6395      6398      6399
      6396      6395      6398      6400      6396      6395      6398      6406
      6397      6395      6398      6399      6397      6395      6398      6400
      6397      6395      6398      6406      6398      6400      6401      6402
      6398      6400      6401      6403      6398      6406      6409      6410
      6399      6398      6400      6401      6399      6398      6406      6407
      6399      6398      6406      6408      6399      6398      6406      6409
      6400      6398      6406      6407      6400      6398      6406      6408
      6400      6398      6406      6409      6400      6401      6403      6404
      6400      6401      6403      6405      6400      6401      6403      6415
      6401      6400      6398      6406      6401      6403      6415      6416
      6401      6403      6415      6417      6401      6403      6415      6418
      6402      6401      6403      6404      6402      6401      6403      6405
      6402      6401      6403      6415      6403      6415      6418      6419
      6403      6415      6418      6420      6403      6415      6418      6421
      6404      6403      6415      6416      6404      6403      6415      6417
      6404      6403      6415      6418      6405      6403      6415      6416
      6405      6403      6415      6417      6405      6403      6415      6418
      6406      6409      6410      6411      6406      6409      6410      6412
      6407      6406      6409      6410      6408      6406      6409      6410
      6409      6410      6412      6413      6409      6410      6412      6414
      6409      6410      6412      6458      6410      6412      6458      6459
      6410      6412      6458      6460      6410      6412      6458      6461
      6411      6410      6412      6413      6411      6410      6412      6414
      6411      6410      6412      6458      6412      6458      6461      6462
      6412      6458      6461      6463      6412      6458      6461      6464
      6413      6412      6458      6459      6413      6412      6458      6460
      6413      6412      6458      6461      6414      6412      6458      6459
      6414      6412      6458      6460      6414      6412      6458      6461
      6415      6418      6421      6422      6415      6418      6421      6423
      6415      6418      6421      6424      6416      6415      6418      6419
      6416      6415      6418      6420      6416      6415      6418      6421
      6417      6415      6418      6419      6417      6415      6418      6420
      6417      6415      6418      6421      6418      6421      6424      6425
      6418      6421      6424      6426      6418      6421      6424      6427
      6419      6418      6421      6422      6419      6418      6421      6423
      6419      6418      6421      6424      6420      6418      6421      6422
      6420      6418      6421      6423      6420      6418      6421      6424
      6421      6424      6427      6428      6421      6424      6427      6429
      6421      6424      6427      6430      6422      6421      6424      6425
      6422      6421      6424      6426      6422      6421      6424      6427
      6423      6421      6424      6425      6423      6421      6424      6426
      6423      6421      6424      6427      6424      6427      6430      6431
      6424      6427      6430      6432      6424      6427      6430      6433
      6425      6424      6427      6428      6425      6424      6427      6429
      6425      6424      6427      6430      6426      6424      6427      6428
      6426      6424      6427      6429      6426      6424      6427      6430
      6427      6430      6433      6434      6427      6430      6433      6435
      6427      6430      6433      6436      6428      6427      6430      6431
      6428      6427      6430      6432      6428      6427      6430      6433
      6429      6427      6430      6431      6429      6427      6430      6432
      6429      6427      6430      6433      6430      6433      6436      6437
      6430      6433      6436      6438      6430      6433      6436      6439
      6431      6430      6433      6434      6431      6430      6433      6435
      6431      6430      6433      6436      6432      6430      6433      6434
      6432      6430      6433      6435      6432      6430      6433      6436
      6433      6436      6439      6440      6433      6436      6439      6441
      6433      6436      6439      6442      6434      6433      6436      6437
      6434      6433      6436      6438      6434      6433      6436      6439
      6435      6433      6436      6437      6435      6433      6436      6438
      6435      6433      6436      6439      6436      6439      6442      6443
      6436      6439      6442      6444      6436      6439      6442      6445
      6437      6436      6439      6440      6437      6436      6439      6441
      6437      6436      6439      6442      6438      6436      6439      6440
      6438      6436      6439      6441      6438      6436      6439      6442
      6439      6442      6445      6446      6439      6442      6445      6447
      6439      6442      6445      6448      6440      6439      6442      6443
      6440      6439      6442      6444      6440      6439      6442      6445
      6441      6439      6442      6443      6441      6439      6442      6444
      6441      6439      6442      6445      6442      6445      6448      6449
      6442      6445      6448      6450      6442      6445      6448      6451
      6443      6442      6445      6446      6443      6442      6445      6447
      6443      6442      6445      6448      6444      6442      6445      6446
      6444      6442      6445      6447      6444      6442      6445      6448
      6445      6448      6451      6452      6445      6448      6451      6453
      6445      6448      6451      6454      6446      6445      6448      6449
      6446      6445      6448      6450      6446      6445      6448      6451
      6447      6445      6448      6449      6447      6445      6448      6450
      6447      6445      6448      6451      6448      6451      6454      6455
      6448      6451      6454      6456      6448      6451      6454      6457
      6449      6448      6451      6452      6449      6448      6451      6453
      6449      6448      6451      6454      6450      6448      6451      6452
      6450      6448      6451      6453      6450      6448      6451      6454
      6452      6451      6454      6455      6452      6451      6454      6456
      6452      6451      6454      6457      6453      6451      6454      6455
      6453      6451      6454      6456      6453      6451      6454      6457
      6458      6461      6464      6465      6458      6461      6464      6466
      6458      6461      6464      6467      6459      6458      6461      6462
      6459      6458      6461      6463      6459      6458      6461      6464
      6460      6458      6461      6462      6460      6458      6461      6463
      6460      6458      6461      6464      6461      6464      6467      6468
      6461      6464      6467      6469      6461      6464      6467      6470
      6462      6461      6464      6465      6462      6461      6464      6466
      6462      6461      6464      6467      6463      6461      6464      6465
      6463      6461      6464      6466      6463      6461      6464      6467
      6464      6467      6470      6471      6464      6467      6470      6472
      6464      6467      6470      6473      6465      6464      6467      6468
      6465      6464      6467      6469      6465      6464      6467      6470
      6466      6464      6467      6468      6466      6464      6467      6469
      6466      6464      6467      6470      6467      6470      6473      6474
      6467      6470      6473      6475      6467      6470      6473      6476
      6468      6467      6470      6471      6468      6467      6470      6472
      6468      6467      6470      6473      6469      6467      6470      6471
      6469      6467      6470      6472      6469      6467      6470      6473
      6470      6473      6476      6477      6470      6473      6476      6478
      6470      6473      6476      6479      6471      6470      6473      6474
      6471      6470      6473      6475      6471      6470      6473      6476
      6472      6470      6473      6474      6472      6470      6473      6475
      6472      6470      6473      6476      6473      6476      6479      6480
      6473      6476      6479      6481      6473      6476      6479      6482
      6474      6473      6476      6477      6474      6473      6476      6478
      6474      6473      6476      6479      6475      6473      6476      6477
      6475      6473      6476      6478      6475      6473      6476      6479
      6476      6479      6482      6483      6476      6479      6482      6484
      6476      6479      6482      6485      6477      6476      6479      6480
      6477      6476      6479      6481      6477      6476      6479      6482
      6478      6476      6479      6480      6478      6476      6479      6481
      6478      6476      6479      6482      6479      6482      6485      6486
      6479      6482      6485      6487      6479      6482      6485      6488
      6480      6479      6482      6483      6480      6479      6482      6484
      6480      6479      6482      6485      6481      6479      6482      6483
      6481      6479      6482      6484      6481      6479      6482      6485
      6482      6485      6488      6489      6482      6485      6488      6490
      6482      6485      6488      6491      6483      6482      6485      6486
      6483      6482      6485      6487      6483      6482      6485      6488
      6484      6482      6485      6486      6484      6482      6485      6487
      6484      6482      6485      6488      6485      6488      6491      6492
      6485      6488      6491      6493      6485      6488      6491      6494
      6486      6485      6488      6489      6486      6485      6488      6490
      6486      6485      6488      6491      6487      6485      6488      6489
      6487      6485      6488      6490      6487      6485      6488      6491
      6488      6491      6494      6495      6488      6491      6494      6496
      6488      6491      6494      6497      6489      6488      6491      6492
      6489      6488      6491      6493      6489      6488      6491      6494
      6490      6488      6491      6492      6490      6488      6491      6493
      6490      6488      6491      6494      6491      6494      6497      6498
      6491      6494      6497      6499      6491      6494      6497      6500
      6492      6491      6494      6495      6492      6491      6494      6496
      6492      6491      6494      6497      6493      6491      6494      6495
      6493      6491      6494      6496      6493      6491      6494      6497
      6495      6494      6497      6498      6495      6494      6497      6499
      6495      6494      6497      6500      6496      6494      6497      6498
      6496      6494      6497      6499      6496      6494      6497      6500
      6501      6514      6517      6518      6501      6514      6517      6519
      6501      6514      6517      6524      6502      6501      6506      6507
      6502      6501      6506      6508      6502      6501      6506      6509
      6502      6501      6510      6511      6502      6501      6510      6512
      6502      6501      6510      6513      6502      6501      6514      6515
      6502      6501      6514      6516      6502      6501      6514      6517
      6503      6502      6501      6506      6503      6502      6501      6510
      6503      6502      6501      6514      6504      6502      6501      6506
      6504      6502      6501      6510      6504      6502      6501      6514
      6505      6502      6501      6506      6505      6502      6501      6510
      6505      6502      6501      6514      6506      6501      6510      6511
      6506      6501      6510      6512      6506      6501      6510      6513
      6506      6501      6514      6515      6506      6501      6514      6516
      6506      6501      6514      6517      6507      6506      6501      6510
      6507      6506      6501      6514      6508      6506      6501      6510
      6508      6506      6501      6514      6509      6506      6501      6510
      6509      6506      6501      6514      6510      6501      6514      6515
      6510      6501      6514      6516      6510      6501      6514      6517
      6511      6510      6501      6514      6512      6510      6501      6514
      6513      6510      6501      6514      6514      6517      6524      6520
      6515      6514      6517      6518      6515      6514      6517      6519
      6515      6514      6517      6524      6516      6514      6517      6518
      6516      6514      6517      6519      6516      6514      6517      6524
      6517      6524      6520      6521      6517      6524      6520      6522
      6517      6524      6520      6523      6518      6517      6524      6520
      6519      6517      6524      6520      6520      6523      6525      6526
      6520      6523      6525      6527      6520      6523      6525      6528
      6521      6520      6523      6525      6522      6520      6523      6525
      6523      6525      6528      6529      6523      6525      6528      6530
      6523      6525      6528      6536      6524      6520      6523      6525
      6525      6528      6530      6531      6525      6528      6536      6537
      6525      6528      6536      6538      6525      6528      6536      6539
      6526      6525      6528      6529      6526      6525      6528      6530
      6526      6525      6528      6536      6527      6525      6528      6529
      6527      6525      6528      6530      6527      6525      6528      6536
      6528      6530      6531      6532      6528      6530      6531      6533
      6528      6536      6539      6540      6529      6528      6530      6531
      6529      6528      6536      6537      6529      6528      6536      6538
      6529      6528      6536      6539      6530      6528      6536      6537
      6530      6528      6536      6538      6530      6528      6536      6539
      6530      6531      6533      6534      6530      6531      6533      6535
      6530      6531      6533      6545      6531      6530      6528      6536
      6531      6533      6545      6546      6531      6533      6545      6547
      6531      6533      6545      6548      6532      6531      6533      6534
      6532      6531      6533      6535      6532      6531      6533      6545
      6533      6545      6548      6549      6533      6545      6548      6550
      6533      6545      6548      6551      6534      6533      6545      6546
      6534      6533      6545      6547      6534      6533      6545      6548
      6535      6533      6545      6546      6535      6533      6545      6547
      6535      6533      6545      6548      6536      6539      6540      6541
      6536      6539      6540      6542      6537      6536      6539      6540
      6538      6536      6539      6540      6539      6540      6542      6543
      6539      6540      6542      6544      6539      6540      6542      6588
      6540      6542      6588      6589      6540      6542      6588      6590
      6540      6542      6588      6591      6541      6540      6542      6543
      6541      6540      6542      6544      6541      6540      6542      6588
      6542      6588      6591      6592      6542      6588      6591      6593
      6542      6588      6591      6594      6543      6542      6588      6589
      6543      6542      6588      6590      6543      6542      6588      6591
      6544      6542      6588      6589      6544      6542      6588      6590
      6544      6542      6588      6591      6545      6548      6551      6552
      6545      6548      6551      6553      6545      6548      6551      6554
      6546      6545      6548      6549      6546      6545      6548      6550
      6546      6545      6548      6551      6547      6545      6548      6549
      6547      6545      6548      6550      6547      6545      6548      6551
      6548      6551      6554      6555      6548      6551      6554      6556
      6548      6551      6554      6557      6549      6548      6551      6552
      6549      6548      6551      6553      6549      6548      6551      6554
      6550      6548      6551      6552      6550      6548      6551      6553
      6550      6548      6551      6554      6551      6554      6557      6558
      6551      6554      6557      6559      6551      6554      6557      6560
      6552      6551      6554      6555      6552      6551      6554      6556
      6552      6551      6554      6557      6553      6551      6554      6555
      6553      6551      6554      6556      6553      6551      6554      6557
      6554      6557      6560      6561      6554      6557      6560      6562
      6554      6557      6560      6563      6555      6554      6557      6558
      6555      6554      6557      6559      6555      6554      6557      6560
      6556      6554      6557      6558      6556      6554      6557      6559
      6556      6554      6557      6560      6557      6560      6563      6564
      6557      6560      6563      6565      6557      6560      6563      6566
      6558      6557      6560      6561      6558      6557      6560      6562
      6558      6557      6560      6563      6559      6557      6560      6561
      6559      6557      6560      6562      6559      6557      6560      6563
      6560      6563      6566      6567      6560      6563      6566      6568
      6560      6563      6566      6569      6561      6560      6563      6564
      6561      6560      6563      6565      6561      6560      6563      6566
      6562      6560      6563      6564      6562      6560      6563      6565
      6562      6560      6563      6566      6563      6566      6569      6570
      6563      6566      6569      6571      6563      6566      6569      6572
      6564      6563      6566      6567      6564      6563      6566      6568
      6564      6563      6566      6569      6565      6563      6566      6567
      6565      6563      6566      6568      6565      6563      6566      6569
      6566      6569      6572      6573      6566      6569      6572      6574
      6566      6569      6572      6575      6567      6566      6569      6570
      6567      6566      6569      6571      6567      6566      6569      6572
      6568      6566      6569      6570      6568      6566      6569      6571
      6568      6566      6569      6572      6569      6572      6575      6576
      6569      6572      6575      6577      6569      6572      6575      6578
      6570      6569      6572      6573      6570      6569      6572      6574
      6570      6569      6572      6575      6571      6569      6572      6573
      6571      6569      6572      6574      6571      6569      6572      6575
      6572      6575      6578      6579      6572      6575      6578      6580
      6572      6575      6578      6581      6573      6572      6575      6576
      6573      6572      6575      6577      6573      6572      6575      6578
      6574      6572      6575      6576      6574      6572      6575      6577
      6574      6572      6575      6578      6575      6578      6581      6582
      6575      6578      6581      6583      6575      6578      6581      6584
      6576      6575      6578      6579      6576      6575      6578      6580
      6576      6575      6578      6581      6577      6575      6578      6579
      6577      6575      6578      6580      6577      6575      6578      6581
      6578      6581      6584      6585      6578      6581      6584      6586
      6578      6581      6584      6587      6579      6578      6581      6582
      6579      6578      6581      6583      6579      6578      6581      6584
      6580      6578      6581      6582      6580      6578      6581      6583
      6580      6578      6581      6584      6582      6581      6584      6585
      6582      6581      6584      6586      6582      6581      6584      6587
      6583      6581      6584      6585      6583      6581      6584      6586
      6583      6581      6584      6587      6588      6591      6594      6595
      6588      6591      6594      6596      6588      6591      6594      6597
      6589      6588      6591      6592      6589      6588      6591      6593
      6589      6588      6591      6594      6590      6588      6591      6592
      6590      6588      6591      6593      6590      6588      6591      6594
      6591      6594      6597      6598      6591      6594      6597      6599
      6591      6594      6597      6600      6592      6591      6594      6595
      6592      6591      6594      6596      6592      6591      6594      6597
      6593      6591      6594      6595      6593      6591      6594      6596
      6593      6591      6594      6597      6594      6597      6600      6601
      6594      6597      6600      6602      6594      6597      6600      6603
      6595      6594      6597      6598      6595      6594      6597      6599
      6595      6594      6597      6600      6596      6594      6597      6598
      6596      6594      6597      6599      6596      6594      6597      6600
      6597      6600      6603      6604      6597      6600      6603      6605
      6597      6600      6603      6606      6598      6597      6600      6601
      6598      6597      6600      6602      6598      6597      6600      6603
      6599      6597      6600      6601      6599      6597      6600      6602
      6599      6597      6600      6603      6600      6603      6606      6607
      6600      6603      6606      6608      6600      6603      6606      6609
      6601      6600      6603      6604      6601      6600      6603      6605
      6601      6600      6603      6606      6602      6600      6603      6604
      6602      6600      6603      6605      6602      6600      6603      6606
      6603      6606      6609      6610      6603      6606      6609      6611
      6603      6606      6609      6612      6604      6603      6606      6607
      6604      6603      6606      6608      6604      6603      6606      6609
      6605      6603      6606      6607      6605      6603      6606      6608
      6605      6603      6606      6609      6606      6609      6612      6613
      6606      6609      6612      6614      6606      6609      6612      6615
      6607      6606      6609      6610      6607      6606      6609      6611
      6607      6606      6609      6612      6608      6606      6609      6610
      6608      6606      6609      6611      6608      6606      6609      6612
      6609      6612      6615      6616      6609      6612      6615      6617
      6609      6612      6615      6618      6610      6609      6612      6613
      6610      6609      6612      6614      6610      6609      6612      6615
      6611      6609      6612      6613      6611      6609      6612      6614
      6611      6609      6612      6615      6612      6615      6618      6619
      6612      6615      6618      6620      6612      6615      6618      6621
      6613      6612      6615      6616      6613      6612      6615      6617
      6613      6612      6615      6618      6614      6612      6615      6616
      6614      6612      6615      6617      6614      6612      6615      6618
      6615      6618      6621      6622      6615      6618      6621      6623
      6615      6618      6621      6624      6616      6615      6618      6619
      6616      6615      6618      6620      6616      6615      6618      6621
      6617      6615      6618      6619      6617      6615      6618      6620
      6617      6615      6618      6621      6618      6621      6624      6625
      6618      6621      6624      6626      6618      6621      6624      6627
      6619      6618      6621      6622      6619      6618      6621      6623
      6619      6618      6621      6624      6620      6618      6621      6622
      6620      6618      6621      6623      6620      6618      6621      6624
      6621      6624      6627      6628      6621      6624      6627      6629
      6621      6624      6627      6630      6622      6621      6624      6625
      6622      6621      6624      6626      6622      6621      6624      6627
      6623      6621      6624      6625      6623      6621      6624      6626
      6623      6621      6624      6627      6625      6624      6627      6628
      6625      6624      6627      6629      6625      6624      6627      6630
      6626      6624      6627      6628      6626      6624      6627      6629
      6626      6624      6627      6630      6631      6644      6647      6648
      6631      6644      6647      6649      6631      6644      6647      6654
      6632      6631      6636      6637      6632      6631      6636      6638
      6632      6631      6636      6639      6632      6631      6640      6641
      6632      6631      6640      6642      6632      6631      6640      6643
      6632      6631      6644      6645      6632      6631      6644      6646
      6632      6631      6644      6647      6633      6632      6631      6636
      6633      6632      6631      6640      6633      6632      6631      6644
      6634      6632      6631      6636      6634      6632      6631      6640
      6634      6632      6631      6644      6635      6632      6631      6636
      6635      6632      6631      6640      6635      6632      6631      6644
      6636      6631      6640      6641      6636      6631      6640      6642
      6636      6631      6640      6643      6636      6631      6644      6645
      6636      6631      6644      6646      6636      6631      6644      6647
      6637      6636      6631      6640      6637      6636      6631      6644
      6638      6636      6631      6640      6638      6636      6631      6644
      6639      6636      6631      6640      6639      6636      6631      6644
      6640      6631      6644      6645      6640      6631      6644      6646
      6640      6631      6644      6647      6641      6640      6631      6644
      6642      6640      6631      6644      6643      6640      6631      6644
      6644      6647      6654      6650      6645      6644      6647      6648
      6645      6644      6647      6649      6645      6644      6647      6654
      6646      6644      6647      6648      6646      6644      6647      6649
      6646      6644      6647      6654      6647      6654      6650      6651
      6647      6654      6650      6652      6647      6654      6650      6653
      6648      6647      6654      6650      6649      6647      6654      6650
      6650      6653      6655      6656      6650      6653      6655      6657
      6650      6653      6655      6658      6651      6650      6653      6655
      6652      6650      6653      6655      6653      6655      6658      6659
      6653      6655      6658      6660      6653      6655      6658      6666
      6654      6650      6653      6655      6655      6658      6660      6661
      6655      6658      6666      6667      6655      6658      6666      6668
      6655      6658      6666      6669      6656      6655      6658      6659
      6656      6655      6658      6660      6656      6655      6658      6666
      6657      6655      6658      6659      6657      6655      6658      6660
      6657      6655      6658      6666      6658      6660      6661      6662
      6658      6660      6661      6663      6658      6666      6669      6670
      6659      6658      6660      6661      6659      6658      6666      6667
      6659      6658      6666      6668      6659      6658      6666      6669
      6660      6658      6666      6667      6660      6658      6666      6668
      6660      6658      6666      6669      6660      6661      6663      6664
      6660      6661      6663      6665      6660      6661      6663      6675
      6661      6660      6658      6666      6661      6663      6675      6676
      6661      6663      6675      6677      6661      6663      6675      6678
      6662      6661      6663      6664      6662      6661      6663      6665
      6662      6661      6663      6675      6663      6675      6678      6679
      6663      6675      6678      6680      6663      6675      6678      6681
      6664      6663      6675      6676      6664      6663      6675      6677
      6664      6663      6675      6678      6665      6663      6675      6676
      6665      6663      6675      6677      6665      6663      6675      6678
      6666      6669      6670      6671      6666      6669      6670      6672
      6667      6666      6669      6670      6668      6666      6669      6670
      6669      6670      6672      6673      6669      6670      6672      6674
      6669      6670      6672      6718      6670      6672      6718      6719
      6670      6672      6718      6720      6670      6672      6718      6721
      6671      6670      6672      6673      6671      6670      6672      6674
      6671      6670      6672      6718      6672      6718      6721      6722
      6672      6718      6721      6723      6672      6718      6721      6724
      6673      6672      6718      6719      6673      6672      6718      6720
      6673      6672      6718      6721      6674      6672      6718      6719
      6674      6672      6718      6720      6674      6672      6718      6721
      6675      6678      6681      6682      6675      6678      6681      6683
      6675      6678      6681      6684      6676      6675      6678      6679
      6676      6675      6678      6680      6676      6675      6678      6681
      6677      6675      6678      6679      6677      6675      6678      6680
      6677      6675      6678      6681      6678      6681      6684      6685
      6678      6681      6684      6686      6678      6681      6684      6687
      6679      6678      6681      6682      6679      6678      6681      6683
      6679      6678      6681      6684      6680      6678      6681      6682
      6680      6678      6681      6683      6680      6678      6681      6684
      6681      6684      6687      6688      6681      6684      6687      6689
      6681      6684      6687      6690      6682      6681      6684      6685
      6682      6681      6684      6686      6682      6681      6684      6687
      6683      6681      6684      6685      6683      6681      6684      6686
      6683      6681      6684      6687      6684      6687      6690      6691
      6684      6687      6690      6692      6684      6687      6690      6693
      6685      6684      6687      6688      6685      6684      6687      6689
      6685      6684      6687      6690      6686      6684      6687      6688
      6686      6684      6687      6689      6686      6684      6687      6690
      6687      6690      6693      6694      6687      6690      6693      6695
      6687      6690      6693      6696      6688      6687      6690      6691
      6688      6687      6690      6692      6688      6687      6690      6693
      6689      6687      6690      6691      6689      6687      6690      6692
      6689      6687      6690      6693      6690      6693      6696      6697
      6690      6693      6696      6698      6690      6693      6696      6699
      6691      6690      6693      6694      6691      6690      6693      6695
      6691      6690      6693      6696      6692      6690      6693      6694
      6692      6690      6693      6695      6692      6690      6693      6696
      6693      6696      6699      6700      6693      6696      6699      6701
      6693      6696      6699      6702      6694      6693      6696      6697
      6694      6693      6696      6698      6694      6693      6696      6699
      6695      6693      6696      6697      6695      6693      6696      6698
      6695      6693      6696      6699      6696      6699      6702      6703
      6696      6699      6702      6704      6696      6699      6702      6705
      6697      6696      6699      6700      6697      6696      6699      6701
      6697      6696      6699      6702      6698      6696      6699      6700
      6698      6696      6699      6701      6698      6696      6699      6702
      6699      6702      6705      6706      6699      6702      6705      6707
      6699      6702      6705      6708      6700      6699      6702      6703
      6700      6699      6702      6704      6700      6699      6702      6705
      6701      6699      6702      6703      6701      6699      6702      6704
      6701      6699      6702      6705      6702      6705      6708      6709
      6702      6705      6708      6710      6702      6705      6708      6711
      6703      6702      6705      6706      6703      6702      6705      6707
      6703      6702      6705      6708      6704      6702      6705      6706
      6704      6702      6705      6707      6704      6702      6705      6708
      6705      6708      6711      6712      6705      6708      6711      6713
      6705      6708      6711      6714      6706      6705      6708      6709
      6706      6705      6708      6710      6706      6705      6708      6711
      6707      6705      6708      6709      6707      6705      6708      6710
      6707      6705      6708      6711      6708      6711      6714      6715
      6708      6711      6714      6716      6708      6711      6714      6717
      6709      6708      6711      6712      6709      6708      6711      6713
      6709      6708      6711      6714      6710      6708      6711      6712
      6710      6708      6711      6713      6710      6708      6711      6714
      6712      6711      6714      6715      6712      6711      6714      6716
      6712      6711      6714      6717      6713      6711      6714      6715
      6713      6711      6714      6716      6713      6711      6714      6717
      6718      6721      6724      6725      6718      6721      6724      6726
      6718      6721      6724      6727      6719      6718      6721      6722
      6719      6718      6721      6723      6719      6718      6721      6724
      6720      6718      6721      6722      6720      6718      6721      6723
      6720      6718      6721      6724      6721      6724      6727      6728
      6721      6724      6727      6729      6721      6724      6727      6730
      6722      6721      6724      6725      6722      6721      6724      6726
      6722      6721      6724      6727      6723      6721      6724      6725
      6723      6721      6724      6726      6723      6721      6724      6727
      6724      6727      6730      6731      6724      6727      6730      6732
      6724      6727      6730      6733      6725      6724      6727      6728
      6725      6724      6727      6729      6725      6724      6727      6730
      6726      6724      6727      6728      6726      6724      6727      6729
      6726      6724      6727      6730      6727      6730      6733      6734
      6727      6730      6733      6735      6727      6730      6733      6736
      6728      6727      6730      6731      6728      6727      6730      6732
      6728      6727      6730      6733      6729      6727      6730      6731
      6729      6727      6730      6732      6729      6727      6730      6733
      6730      6733      6736      6737      6730      6733      6736      6738
      6730      6733      6736      6739      6731      6730      6733      6734
      6731      6730      6733      6735      6731      6730      6733      6736
      6732      6730      6733      6734      6732      6730      6733      6735
      6732      6730      6733      6736      6733      6736      6739      6740
      6733      6736      6739      6741      6733      6736      6739      6742
      6734      6733      6736      6737      6734      6733      6736      6738
      6734      6733      6736      6739      6735      6733      6736      6737
      6735      6733      6736      6738      6735      6733      6736      6739
      6736      6739      6742      6743      6736      6739      6742      6744
      6736      6739      6742      6745      6737      6736      6739      6740
      6737      6736      6739      6741      6737      6736      6739      6742
      6738      6736      6739      6740      6738      6736      6739      6741
      6738      6736      6739      6742      6739      6742      6745      6746
      6739      6742      6745      6747      6739      6742      6745      6748
      6740      6739      6742      6743      6740      6739      6742      6744
      6740      6739      6742      6745      6741      6739      6742      6743
      6741      6739      6742      6744      6741      6739      6742      6745
      6742      6745      6748      6749      6742      6745      6748      6750
      6742      6745      6748      6751      6743      6742      6745      6746
      6743      6742      6745      6747      6743      6742      6745      6748
      6744      6742      6745      6746      6744      6742      6745      6747
      6744      6742      6745      6748      6745      6748      6751      6752
      6745      6748      6751      6753      6745      6748      6751      6754
      6746      6745      6748      6749      6746      6745      6748      6750
      6746      6745      6748      6751      6747      6745      6748      6749
      6747      6745      6748      6750      6747      6745      6748      6751
      6748      6751      6754      6755      6748      6751      6754      6756
      6748      6751      6754      6757      6749      6748      6751      6752
      6749      6748      6751      6753      6749      6748      6751      6754
      6750      6748      6751      6752      6750      6748      6751      6753
      6750      6748      6751      6754      6751      6754      6757      6758
      6751      6754      6757      6759      6751      6754      6757      6760
      6752      6751      6754      6755      6752      6751      6754      6756
      6752      6751      6754      6757      6753      6751      6754      6755
      6753      6751      6754      6756      6753      6751      6754      6757
      6755      6754      6757      6758      6755      6754      6757      6759
      6755      6754      6757      6760      6756      6754      6757      6758
      6756      6754      6757      6759      6756      6754      6757      6760
      6761      6774      6777      6778      6761      6774      6777      6779
      6761      6774      6777      6784      6762      6761      6766      6767
      6762      6761      6766      6768      6762      6761      6766      6769
      6762      6761      6770      6771      6762      6761      6770      6772
      6762      6761      6770      6773      6762      6761      6774      6775
      6762      6761      6774      6776      6762      6761      6774      6777
      6763      6762      6761      6766      6763      6762      6761      6770
      6763      6762      6761      6774      6764      6762      6761      6766
      6764      6762      6761      6770      6764      6762      6761      6774
      6765      6762      6761      6766      6765      6762      6761      6770
      6765      6762      6761      6774      6766      6761      6770      6771
      6766      6761      6770      6772      6766      6761      6770      6773
      6766      6761      6774      6775      6766      6761      6774      6776
      6766      6761      6774      6777      6767      6766      6761      6770
      6767      6766      6761      6774      6768      6766      6761      6770
      6768      6766      6761      6774      6769      6766      6761      6770
      6769      6766      6761      6774      6770      6761      6774      6775
      6770      6761      6774      6776      6770      6761      6774      6777
      6771      6770      6761      6774      6772      6770      6761      6774
      6773      6770      6761      6774      6774      6777      6784      6780
      6775      6774      6777      6778      6775      6774      6777      6779
      6775      6774      6777      6784      6776      6774      6777      6778
      6776      6774      6777      6779      6776      6774      6777      6784
      6777      6784      6780      6781      6777      6784      6780      6782
      6777      6784      6780      6783      6778      6777      6784      6780
      6779      6777      6784      6780      6780      6783      6785      6786
      6780      6783      6785      6787      6780      6783      6785      6788
      6781      6780      6783      6785      6782      6780      6783      6785
      6783      6785      6788      6789      6783      6785      6788      6790
      6783      6785      6788      6796      6784      6780      6783      6785
      6785      6788      6790      6791      6785      6788      6796      6797
      6785      6788      6796      6798      6785      6788      6796      6799
      6786      6785      6788      6789      6786      6785      6788      6790
      6786      6785      6788      6796      6787      6785      6788      6789
      6787      6785      6788      6790      6787      6785      6788      6796
      6788      6790      6791      6792      6788      6790      6791      6793
      6788      6796      6799      6800      6789      6788      6790      6791
      6789      6788      6796      6797      6789      6788      6796      6798
      6789      6788      6796      6799      6790      6788      6796      6797
      6790      6788      6796      6798      6790      6788      6796      6799
      6790      6791      6793      6794      6790      6791      6793      6795
      6790      6791      6793      6805      6791      6790      6788      6796
      6791      6793      6805      6806      6791      6793      6805      6807
      6791      6793      6805      6808      6792      6791      6793      6794
      6792      6791      6793      6795      6792      6791      6793      6805
      6793      6805      6808      6809      6793      6805      6808      6810
      6793      6805      6808      6811      6794      6793      6805      6806
      6794      6793      6805      6807      6794      6793      6805      6808
      6795      6793      6805      6806      6795      6793      6805      6807
      6795      6793      6805      6808      6796      6799      6800      6801
      6796      6799      6800      6802      6797      6796      6799      6800
      6798      6796      6799      6800      6799      6800      6802      6803
      6799      6800      6802      6804      6799      6800      6802      6848
      6800      6802      6848      6849      6800      6802      6848      6850
      6800      6802      6848      6851      6801      6800      6802      6803
      6801      6800      6802      6804      6801      6800      6802      6848
      6802      6848      6851      6852      6802      6848      6851      6853
      6802      6848      6851      6854      6803      6802      6848      6849
      6803      6802      6848      6850      6803      6802      6848      6851
      6804      6802      6848      6849      6804      6802      6848      6850
      6804      6802      6848      6851      6805      6808      6811      6812
      6805      6808      6811      6813      6805      6808      6811      6814
      6806      6805      6808      6809      6806      6805      6808      6810
      6806      6805      6808      6811      6807      6805      6808      6809
      6807      6805      6808      6810      6807      6805      6808      6811
      6808      6811      6814      6815      6808      6811      6814      6816
      6808      6811      6814      6817      6809      6808      6811      6812
      6809      6808      6811      6813      6809      6808      6811      6814
      6810      6808      6811      6812      6810      6808      6811      6813
      6810      6808      6811      6814      6811      6814      6817      6818
      6811      6814      6817      6819      6811      6814      6817      6820
      6812      6811      6814      6815      6812      6811      6814      6816
      6812      6811      6814      6817      6813      6811      6814      6815
      6813      6811      6814      6816      6813      6811      6814      6817
      6814      6817      6820      6821      6814      6817      6820      6822
      6814      6817      6820      6823      6815      6814      6817      6818
      6815      6814      6817      6819      6815      6814      6817      6820
      6816      6814      6817      6818      6816      6814      6817      6819
      6816      6814      6817      6820      6817      6820      6823      6824
      6817      6820      6823      6825      6817      6820      6823      6826
      6818      6817      6820      6821      6818      6817      6820      6822
      6818      6817      6820      6823      6819      6817      6820      6821
      6819      6817      6820      6822      6819      6817      6820      6823
      6820      6823      6826      6827      6820      6823      6826      6828
      6820      6823      6826      6829      6821      6820      6823      6824
      6821      6820      6823      6825      6821      6820      6823      6826
      6822      6820      6823      6824      6822      6820      6823      6825
      6822      6820      6823      6826      6823      6826      6829      6830
      6823      6826      6829      6831      6823      6826      6829      6832
      6824      6823      6826      6827      6824      6823      6826      6828
      6824      6823      6826      6829      6825      6823      6826      6827
      6825      6823      6826      6828      6825      6823      6826      6829
      6826      6829      6832      6833      6826      6829      6832      6834
      6826      6829      6832      6835      6827      6826      6829      6830
      6827      6826      6829      6831      6827      6826      6829      6832
      6828      6826      6829      6830      6828      6826      6829      6831
      6828      6826      6829      6832      6829      6832      6835      6836
      6829      6832      6835      6837      6829      6832      6835      6838
      6830      6829      6832      6833      6830      6829      6832      6834
      6830      6829      6832      6835      6831      6829      6832      6833
      6831      6829      6832      6834      6831      6829      6832      6835
      6832      6835      6838      6839      6832      6835      6838      6840
      6832      6835      6838      6841      6833      6832      6835      6836
      6833      6832      6835      6837      6833      6832      6835      6838
      6834      6832      6835      6836      6834      6832      6835      6837
      6834      6832      6835      6838      6835      6838      6841      6842
      6835      6838      6841      6843      6835      6838      6841      6844
      6836      6835      6838      6839      6836      6835      6838      6840
      6836      6835      6838      6841      6837      6835      6838      6839
      6837      6835      6838      6840      6837      6835      6838      6841
      6838      6841      6844      6845      6838      6841      6844      6846
      6838      6841      6844      6847      6839      6838      6841      6842
      6839      6838      6841      6843      6839      6838      6841      6844
      6840      6838      6841      6842      6840      6838      6841      6843
      6840      6838      6841      6844      6842      6841      6844      6845
      6842      6841      6844      6846      6842      6841      6844      6847
      6843      6841      6844      6845      6843      6841      6844      6846
      6843      6841      6844      6847      6848      6851      6854      6855
      6848      6851      6854      6856      6848      6851      6854      6857
      6849      6848      6851      6852      6849      6848      6851      6853
      6849      6848      6851      6854      6850      6848      6851      6852
      6850      6848      6851      6853      6850      6848      6851      6854
      6851      6854      6857      6858      6851      6854      6857      6859
      6851      6854      6857      6860      6852      6851      6854      6855
      6852      6851      6854      6856      6852      6851      6854      6857
      6853      6851      6854      6855      6853      6851      6854      6856
      6853      6851      6854      6857      6854      6857      6860      6861
      6854      6857      6860      6862      6854      6857      6860      6863
      6855      6854      6857      6858      6855      6854      6857      6859
      6855      6854      6857      6860      6856      6854      6857      6858
      6856      6854      6857      6859      6856      6854      6857      6860
      6857      6860      6863      6864      6857      6860      6863      6865
      6857      6860      6863      6866      6858      6857      6860      6861
      6858      6857      6860      6862      6858      6857      6860      6863
      6859      6857      6860      6861      6859      6857      6860      6862
      6859      6857      6860      6863      6860      6863      6866      6867
      6860      6863      6866      6868      6860      6863      6866      6869
      6861      6860      6863      6864      6861      6860      6863      6865
      6861      6860      6863      6866      6862      6860      6863      6864
      6862      6860      6863      6865      6862      6860      6863      6866
      6863      6866      6869      6870      6863      6866      6869      6871
      6863      6866      6869      6872      6864      6863      6866      6867
      6864      6863      6866      6868      6864      6863      6866      6869
      6865      6863      6866      6867      6865      6863      6866      6868
      6865      6863      6866      6869      6866      6869      6872      6873
      6866      6869      6872      6874      6866      6869      6872      6875
      6867      6866      6869      6870      6867      6866      6869      6871
      6867      6866      6869      6872      6868      6866      6869      6870
      6868      6866      6869      6871      6868      6866      6869      6872
      6869      6872      6875      6876      6869      6872      6875      6877
      6869      6872      6875      6878      6870      6869      6872      6873
      6870      6869      6872      6874      6870      6869      6872      6875
      6871      6869      6872      6873      6871      6869      6872      6874
      6871      6869      6872      6875      6872      6875      6878      6879
      6872      6875      6878      6880      6872      6875      6878      6881
      6873      6872      6875      6876      6873      6872      6875      6877
      6873      6872      6875      6878      6874      6872      6875      6876
      6874      6872      6875      6877      6874      6872      6875      6878
      6875      6878      6881      6882      6875      6878      6881      6883
      6875      6878      6881      6884      6876      6875      6878      6879
      6876      6875      6878      6880      6876      6875      6878      6881
      6877      6875      6878      6879      6877      6875      6878      6880
      6877      6875      6878      6881      6878      6881      6884      6885
      6878      6881      6884      6886      6878      6881      6884      6887
      6879      6878      6881      6882      6879      6878      6881      6883
      6879      6878      6881      6884      6880      6878      6881      6882
      6880      6878      6881      6883      6880      6878      6881      6884
      6881      6884      6887      6888      6881      6884      6887      6889
      6881      6884      6887      6890      6882      6881      6884      6885
      6882      6881      6884      6886      6882      6881      6884      6887
      6883      6881      6884      6885      6883      6881      6884      6886
      6883      6881      6884      6887      6885      6884      6887      6888
      6885      6884      6887      6889      6885      6884      6887      6890
      6886      6884      6887      6888      6886      6884      6887      6889
      6886      6884      6887      6890      6891      6904      6907      6908
      6891      6904      6907      6909      6891      6904      6907      6914
      6892      6891      6896      6897      6892      6891      6896      6898
      6892      6891      6896      6899      6892      6891      6900      6901
      6892      6891      6900      6902      6892      6891      6900      6903
      6892      6891      6904      6905      6892      6891      6904      6906
      6892      6891      6904      6907      6893      6892      6891      6896
      6893      6892      6891      6900      6893      6892      6891      6904
      6894      6892      6891      6896      6894      6892      6891      6900
      6894      6892      6891      6904      6895      6892      6891      6896
      6895      6892      6891      6900      6895      6892      6891      6904
      6896      6891      6900      6901      6896      6891      6900      6902
      6896      6891      6900      6903      6896      6891      6904      6905
      6896      6891      6904      6906      6896      6891      6904      6907
      6897      6896      6891      6900      6897      6896      6891      6904
      6898      6896      6891      6900      6898      6896      6891      6904
      6899      6896      6891      6900      6899      6896      6891      6904
      6900      6891      6904      6905      6900      6891      6904      6906
      6900      6891      6904      6907      6901      6900      6891      6904
      6902      6900      6891      6904      6903      6900      6891      6904
      6904      6907      6914      6910      6905      6904      6907      6908
      6905      6904      6907      6909      6905      6904      6907      6914
      6906      6904      6907      6908      6906      6904      6907      6909
      6906      6904      6907      6914      6907      6914      6910      6911
      6907      6914      6910      6912      6907      6914      6910      6913
      6908      6907      6914      6910      6909      6907      6914      6910
      6910      6913      6915      6916      6910      6913      6915      6917
      6910      6913      6915      6918      6911      6910      6913      6915
      6912      6910      6913      6915      6913      6915      6918      6919
      6913      6915      6918      6920      6913      6915      6918      6926
      6914      6910      6913      6915      6915      6918      6920      6921
      6915      6918      6926      6927      6915      6918      6926      6928
      6915      6918      6926      6929      6916      6915      6918      6919
      6916      6915      6918      6920      6916      6915      6918      6926
      6917      6915      6918      6919      6917      6915      6918      6920
      6917      6915      6918      6926      6918      6920      6921      6922
      6918      6920      6921      6923      6918      6926      6929      6930
      6919      6918      6920      6921      6919      6918      6926      6927
      6919      6918      6926      6928      6919      6918      6926      6929
      6920      6918      6926      6927      6920      6918      6926      6928
      6920      6918      6926      6929      6920      6921      6923      6924
      6920      6921      6923      6925      6920      6921      6923      6935
      6921      6920      6918      6926      6921      6923      6935      6936
      6921      6923      6935      6937      6921      6923      6935      6938
      6922      6921      6923      6924      6922      6921      6923      6925
      6922      6921      6923      6935      6923      6935      6938      6939
      6923      6935      6938      6940      6923      6935      6938      6941
      6924      6923      6935      6936      6924      6923      6935      6937
      6924      6923      6935      6938      6925      6923      6935      6936
      6925      6923      6935      6937      6925      6923      6935      6938
      6926      6929      6930      6931      6926      6929      6930      6932
      6927      6926      6929      6930      6928      6926      6929      6930
      6929      6930      6932      6933      6929      6930      6932      6934
      6929      6930      6932      6978      6930      6932      6978      6979
      6930      6932      6978      6980      6930      6932      6978      6981
      6931      6930      6932      6933      6931      6930      6932      6934
      6931      6930      6932      6978      6932      6978      6981      6982
      6932      6978      6981      6983      6932      6978      6981      6984
      6933      6932      6978      6979      6933      6932      6978      6980
      6933      6932      6978      6981      6934      6932      6978      6979
      6934      6932      6978      6980      6934      6932      6978      6981
      6935      6938      6941      6942      6935      6938      6941      6943
      6935      6938      6941      6944      6936      6935      6938      6939
      6936      6935      6938      6940      6936      6935      6938      6941
      6937      6935      6938      6939      6937      6935      6938      6940
      6937      6935      6938      6941      6938      6941      6944      6945
      6938      6941      6944      6946      6938      6941      6944      6947
      6939      6938      6941      6942      6939      6938      6941      6943
      6939      6938      6941      6944      6940      6938      6941      6942
      6940      6938      6941      6943      6940      6938      6941      6944
      6941      6944      6947      6948      6941      6944      6947      6949
      6941      6944      6947      6950      6942      6941      6944      6945
      6942      6941      6944      6946      6942      6941      6944      6947
      6943      6941      6944      6945      6943      6941      6944      6946
      6943      6941      6944      6947      6944      6947      6950      6951
      6944      6947      6950      6952      6944      6947      6950      6953
      6945      6944      6947      6948      6945      6944      6947      6949
      6945      6944      6947      6950      6946      6944      6947      6948
      6946      6944      6947      6949      6946      6944      6947      6950
      6947      6950      6953      6954      6947      6950      6953      6955
      6947      6950      6953      6956      6948      6947      6950      6951
      6948      6947      6950      6952      6948      6947      6950      6953
      6949      6947      6950      6951      6949      6947      6950      6952
      6949      6947      6950      6953      6950      6953      6956      6957
      6950      6953      6956      6958      6950      6953      6956      6959
      6951      6950      6953      6954      6951      6950      6953      6955
      6951      6950      6953      6956      6952      6950      6953      6954
      6952      6950      6953      6955      6952      6950      6953      6956
      6953      6956      6959      6960      6953      6956      6959      6961
      6953      6956      6959      6962      6954      6953      6956      6957
      6954      6953      6956      6958      6954      6953      6956      6959
      6955      6953      6956      6957      6955      6953      6956      6958
      6955      6953      6956      6959      6956      6959      6962      6963
      6956      6959      6962      6964      6956      6959      6962      6965
      6957      6956      6959      6960      6957      6956      6959      6961
      6957      6956      6959      6962      6958      6956      6959      6960
      6958      6956      6959      6961      6958      6956      6959      6962
      6959      6962      6965      6966      6959      6962      6965      6967
      6959      6962      6965      6968      6960      6959      6962      6963
      6960      6959      6962      6964      6960      6959      6962      6965
      6961      6959      6962      6963      6961      6959      6962      6964
      6961      6959      6962      6965      6962      6965      6968      6969
      6962      6965      6968      6970      6962      6965      6968      6971
      6963      6962      6965      6966      6963      6962      6965      6967
      6963      6962      6965      6968      6964      6962      6965      6966
      6964      6962      6965      6967      6964      6962      6965      6968
      6965      6968      6971      6972      6965      6968      6971      6973
      6965      6968      6971      6974      6966      6965      6968      6969
      6966      6965      6968      6970      6966      6965      6968      6971
      6967      6965      6968      6969      6967      6965      6968      6970
      6967      6965      6968      6971      6968      6971      6974      6975
      6968      6971      6974      6976      6968      6971      6974      6977
      6969      6968      6971      6972      6969      6968      6971      6973
      6969      6968      6971      6974      6970      6968      6971      6972
      6970      6968      6971      6973      6970      6968      6971      6974
      6972      6971      6974      6975      6972      6971      6974      6976
      6972      6971      6974      6977      6973      6971      6974      6975
      6973      6971      6974      6976      6973      6971      6974      6977
      6978      6981      6984      6985      6978      6981      6984      6986
      6978      6981      6984      6987      6979      6978      6981      6982
      6979      6978      6981      6983      6979      6978      6981      6984
      6980      6978      6981      6982      6980      6978      6981      6983
      6980      6978      6981      6984      6981      6984      6987      6988
      6981      6984      6987      6989      6981      6984      6987      6990
      6982      6981      6984      6985      6982      6981      6984      6986
      6982      6981      6984      6987      6983      6981      6984      6985
      6983      6981      6984      6986      6983      6981      6984      6987
      6984      6987      6990      6991      6984      6987      6990      6992
      6984      6987      6990      6993      6985      6984      6987      6988
      6985      6984      6987      6989      6985      6984      6987      6990
      6986      6984      6987      6988      6986      6984      6987      6989
      6986      6984      6987      6990      6987      6990      6993      6994
      6987      6990      6993      6995      6987      6990      6993      6996
      6988      6987      6990      6991      6988      6987      6990      6992
      6988      6987      6990      6993      6989      6987      6990      6991
      6989      6987      6990      6992      6989      6987      6990      6993
      6990      6993      6996      6997      6990      6993      6996      6998
      6990      6993      6996      6999      6991      6990      6993      6994
      6991      6990      6993      6995      6991      6990      6993      6996
      6992      6990      6993      6994      6992      6990      6993      6995
      6992      6990      6993      6996      6993      6996      6999      7000
      6993      6996      6999      7001      6993      6996      6999      7002
      6994      6993      6996      6997      6994      6993      6996      6998
      6994      6993      6996      6999      6995      6993      6996      6997
      6995      6993      6996      6998      6995      6993      6996      6999
      6996      6999      7002      7003      6996      6999      7002      7004
      6996      6999      7002      7005      6997      6996      6999      7000
      6997      6996      6999      7001      6997      6996      6999      7002
      6998      6996      6999      7000      6998      6996      6999      7001
      6998      6996      6999      7002      6999      7002      7005      7006
      6999      7002      7005      7007      6999      7002      7005      7008
      7000      6999      7002      7003      7000      6999      7002      7004
      7000      6999      7002      7005      7001      6999      7002      7003
      7001      6999      7002      7004      7001      6999      7002      7005
      7002      7005      7008      7009      7002      7005      7008      7010
      7002      7005      7008      7011      7003      7002      7005      7006
      7003      7002      7005      7007      7003      7002      7005      7008
      7004      7002      7005      7006      7004      7002      7005      7007
      7004      7002      7005      7008      7005      7008      7011      7012
      7005      7008      7011      7013      7005      7008      7011      7014
      7006      7005      7008      7009      7006      7005      7008      7010
      7006      7005      7008      7011      7007      7005      7008      7009
      7007      7005      7008      7010      7007      7005      7008      7011
      7008      7011      7014      7015      7008      7011      7014      7016
      7008      7011      7014      7017      7009      7008      7011      7012
      7009      7008      7011      7013      7009      7008      7011      7014
      7010      7008      7011      7012      7010      7008      7011      7013
      7010      7008      7011      7014      7011      7014      7017      7018
      7011      7014      7017      7019      7011      7014      7017      7020
      7012      7011      7014      7015      7012      7011      7014      7016
      7012      7011      7014      7017      7013      7011      7014      7015
      7013      7011      7014      7016      7013      7011      7014      7017
      7015      7014      7017      7018      7015      7014      7017      7019
      7015      7014      7017      7020      7016      7014      7017      7018
      7016      7014      7017      7019      7016      7014      7017      7020
      7021      7034      7037      7038      7021      7034      7037      7039
      7021      7034      7037      7044      7022      7021      7026      7027
      7022      7021      7026      7028      7022      7021      7026      7029
      7022      7021      7030      7031      7022      7021      7030      7032
      7022      7021      7030      7033      7022      7021      7034      7035
      7022      7021      7034      7036      7022      7021      7034      7037
      7023      7022      7021      7026      7023      7022      7021      7030
      7023      7022      7021      7034      7024      7022      7021      7026
      7024      7022      7021      7030      7024      7022      7021      7034
      7025      7022      7021      7026      7025      7022      7021      7030
      7025      7022      7021      7034      7026      7021      7030      7031
      7026      7021      7030      7032      7026      7021      7030      7033
      7026      7021      7034      7035      7026      7021      7034      7036
      7026      7021      7034      7037      7027      7026      7021      7030
      7027      7026      7021      7034      7028      7026      7021      7030
      7028      7026      7021      7034      7029      7026      7021      7030
      7029      7026      7021      7034      7030      7021      7034      7035
      7030      7021      7034      7036      7030      7021      7034      7037
      7031      7030      7021      7034      7032      7030      7021      7034
      7033      7030      7021      7034      7034      7037      7044      7040
      7035      7034      7037      7038      7035      7034      7037      7039
      7035      7034      7037      7044      7036      7034      7037      7038
      7036      7034      7037      7039      7036      7034      7037      7044
      7037      7044      7040      7041      7037      7044      7040      7042
      7037      7044      7040      7043      7038      7037      7044      7040
      7039      7037      7044      7040      7040      7043      7045      7046
      7040      7043      7045      7047      7040      7043      7045      7048
      7041      7040      7043      7045      7042      7040      7043      7045
      7043      7045      7048      7049      7043      7045      7048      7050
      7043      7045      7048      7056      7044      7040      7043      7045
      7045      7048      7050      7051      7045      7048      7056      7057
      7045      7048      7056      7058      7045      7048      7056      7059
      7046      7045      7048      7049      7046      7045      7048      7050
      7046      7045      7048      7056      7047      7045      7048      7049
      7047      7045      7048      7050      7047      7045      7048      7056
      7048      7050      7051      7052      7048      7050      7051      7053
      7048      7056      7059      7060      7049      7048      7050      7051
      7049      7048      7056      7057      7049      7048      7056      7058
      7049      7048      7056      7059      7050      7048      7056      7057
      7050      7048      7056      7058      7050      7048      7056      7059
      7050      7051      7053      7054      7050      7051      7053      7055
      7050      7051      7053      7065      7051      7050      7048      7056
      7051      7053      7065      7066      7051      7053      7065      7067
      7051      7053      7065      7068      7052      7051      7053      7054
      7052      7051      7053      7055      7052      7051      7053      7065
      7053      7065      7068      7069      7053      7065      7068      7070
      7053      7065      7068      7071      7054      7053      7065      7066
      7054      7053      7065      7067      7054      7053      7065      7068
      7055      7053      7065      7066      7055      7053      7065      7067
      7055      7053      7065      7068      7056      7059      7060      7061
      7056      7059      7060      7062      7057      7056      7059      7060
      7058      7056      7059      7060      7059      7060      7062      7063
      7059      7060      7062      7064      7059      7060      7062      7108
      7060      7062      7108      7109      7060      7062      7108      7110
      7060      7062      7108      7111      7061      7060      7062      7063
      7061      7060      7062      7064      7061      7060      7062      7108
      7062      7108      7111      7112      7062      7108      7111      7113
      7062      7108      7111      7114      7063      7062      7108      7109
      7063      7062      7108      7110      7063      7062      7108      7111
      7064      7062      7108      7109      7064      7062      7108      7110
      7064      7062      7108      7111      7065      7068      7071      7072
      7065      7068      7071      7073      7065      7068      7071      7074
      7066      7065      7068      7069      7066      7065      7068      7070
      7066      7065      7068      7071      7067      7065      7068      7069
      7067      7065      7068      7070      7067      7065      7068      7071
      7068      7071      7074      7075      7068      7071      7074      7076
      7068      7071      7074      7077      7069      7068      7071      7072
      7069      7068      7071      7073      7069      7068      7071      7074
      7070      7068      7071      7072      7070      7068      7071      7073
      7070      7068      7071      7074      7071      7074      7077      7078
      7071      7074      7077      7079      7071      7074      7077      7080
      7072      7071      7074      7075      7072      7071      7074      7076
      7072      7071      7074      7077      7073      7071      7074      7075
      7073      7071      7074      7076      7073      7071      7074      7077
      7074      7077      7080      7081      7074      7077      7080      7082
      7074      7077      7080      7083      7075      7074      7077      7078
      7075      7074      7077      7079      7075      7074      7077      7080
      7076      7074      7077      7078      7076      7074      7077      7079
      7076      7074      7077      7080      7077      7080      7083      7084
      7077      7080      7083      7085      7077      7080      7083      7086
      7078      7077      7080      7081      7078      7077      7080      7082
      7078      7077      7080      7083      7079      7077      7080      7081
      7079      7077      7080      7082      7079      7077      7080      7083
      7080      7083      7086      7087      7080      7083      7086      7088
      7080      7083      7086      7089      7081      7080      7083      7084
      7081      7080      7083      7085      7081      7080      7083      7086
      7082      7080      7083      7084      7082      7080      7083      7085
      7082      7080      7083      7086      7083      7086      7089      7090
      7083      7086      7089      7091      7083      7086      7089      7092
      7084      7083      7086      7087      7084      7083      7086      7088
      7084      7083      7086      7089      7085      7083      7086      7087
      7085      7083      7086      7088      7085      7083      7086      7089
      7086      7089      7092      7093      7086      7089      7092      7094
      7086      7089      7092      7095      7087      7086      7089      7090
      7087      7086      7089      7091      7087      7086      7089      7092
      7088      7086      7089      7090      7088      7086      7089      7091
      7088      7086      7089      7092      7089      7092      7095      7096
      7089      7092      7095      7097      7089      7092      7095      7098
      7090      7089      7092      7093      7090      7089      7092      7094
      7090      7089      7092      7095      7091      7089      7092      7093
      7091      7089      7092      7094      7091      7089      7092      7095
      7092      7095      7098      7099      7092      7095      7098      7100
      7092      7095      7098      7101      7093      7092      7095      7096
      7093      7092      7095      7097      7093      7092      7095      7098
      7094      7092      7095      7096      7094      7092      7095      7097
      7094      7092      7095      7098      7095      7098      7101      7102
      7095      7098      7101      7103      7095      7098      7101      7104
      7096      7095      7098      7099      7096      7095      7098      7100
      7096      7095      7098      7101      7097      7095      7098      7099
      7097      7095      7098      7100      7097      7095      7098      7101
      7098      7101      7104      7105      7098      7101      7104      7106
      7098      7101      7104      7107      7099      7098      7101      7102
      7099      7098      7101      7103      7099      7098      7101      7104
      7100      7098      7101      7102      7100      7098      7101      7103
      7100      7098      7101      7104      7102      7101      7104      7105
      7102      7101      7104      7106      7102      7101      7104      7107
      7103      7101      7104      7105      7103      7101      7104      7106
      7103      7101      7104      7107      7108      7111      7114      7115
      7108      7111      7114      7116      7108      7111      7114      7117
      7109      7108      7111      7112      7109      7108      7111      7113
      7109      7108      7111      7114      7110      7108      7111      7112
      7110      7108      7111      7113      7110      7108      7111      7114
      7111      7114      7117      7118      7111      7114      7117      7119
      7111      7114      7117      7120      7112      7111      7114      7115
      7112      7111      7114      7116      7112      7111      7114      7117
      7113      7111      7114      7115      7113      7111      7114      7116
      7113      7111      7114      7117      7114      7117      7120      7121
      7114      7117      7120      7122      7114      7117      7120      7123
      7115      7114      7117      7118      7115      7114      7117      7119
      7115      7114      7117      7120      7116      7114      7117      7118
      7116      7114      7117      7119      7116      7114      7117      7120
      7117      7120      7123      7124      7117      7120      7123      7125
      7117      7120      7123      7126      7118      7117      7120      7121
      7118      7117      7120      7122      7118      7117      7120      7123
      7119      7117      7120      7121      7119      7117      7120      7122
      7119      7117      7120      7123      7120      7123      7126      7127
      7120      7123      7126      7128      7120      7123      7126      7129
      7121      7120      7123      7124      7121      7120      7123      7125
      7121      7120      7123      7126      7122      7120      7123      7124
      7122      7120      7123      7125      7122      7120      7123      7126
      7123      7126      7129      7130      7123      7126      7129      7131
      7123      7126      7129      7132      7124      7123      7126      7127
      7124      7123      7126      7128      7124      7123      7126      7129
      7125      7123      7126      7127      7125      7123      7126      7128
      7125      7123      7126      7129      7126      7129      7132      7133
      7126      7129      7132      7134      7126      7129      7132      7135
      7127      7126      7129      7130      7127      7126      7129      7131
      7127      7126      7129      7132      7128      7126      7129      7130
      7128      7126      7129      7131      7128      7126      7129      7132
      7129      7132      7135      7136      7129      7132      7135      7137
      7129      7132      7135      7138      7130      7129      7132      7133
      7130      7129      7132      7134      7130      7129      7132      7135
      7131      7129      7132      7133      7131      7129      7132      7134
      7131      7129      7132      7135      7132      7135      7138      7139
      7132      7135      7138      7140      7132      7135      7138      7141
      7133      7132      7135      7136      7133      7132      7135      7137
      7133      7132      7135      7138      7134      7132      7135      7136
      7134      7132      7135      7137      7134      7132      7135      7138
      7135      7138      7141      7142      7135      7138      7141      7143
      7135      7138      7141      7144      7136      7135      7138      7139
      7136      7135      7138      7140      7136      7135      7138      7141
      7137      7135      7138      7139      7137      7135      7138      7140
      7137      7135      7138      7141      7138      7141      7144      7145
      7138      7141      7144      7146      7138      7141      7144      7147
      7139      7138      7141      7142      7139      7138      7141      7143
      7139      7138      7141      7144      7140      7138      7141      7142
      7140      7138      7141      7143      7140      7138      7141      7144
      7141      7144      7147      7148      7141      7144      7147      7149
      7141      7144      7147      7150      7142      7141      7144      7145
      7142      7141      7144      7146      7142      7141      7144      7147
      7143      7141      7144      7145      7143      7141      7144      7146
      7143      7141      7144      7147      7145      7144      7147      7148
      7145      7144      7147      7149      7145      7144      7147      7150
      7146      7144      7147      7148      7146      7144      7147      7149
      7146      7144      7147      7150      7151      7164      7167      7168
      7151      7164      7167      7169      7151      7164      7167      7174
      7152      7151      7156      7157      7152      7151      7156      7158
      7152      7151      7156      7159      7152      7151      7160      7161
      7152      7151      7160      7162      7152      7151      7160      7163
      7152      7151      7164      7165      7152      7151      7164      7166
      7152      7151      7164      7167      7153      7152      7151      7156
      7153      7152      7151      7160      7153      7152      7151      7164
      7154      7152      7151      7156      7154      7152      7151      7160
      7154      7152      7151      7164      7155      7152      7151      7156
      7155      7152      7151      7160      7155      7152      7151      7164
      7156      7151      7160      7161      7156      7151      7160      7162
      7156      7151      7160      7163      7156      7151      7164      7165
      7156      7151      7164      7166      7156      7151      7164      7167
      7157      7156      7151      7160      7157      7156      7151      7164
      7158      7156      7151      7160      7158      7156      7151      7164
      7159      7156      7151      7160      7159      7156      7151      7164
      7160      7151      7164      7165      7160      7151      7164      7166
      7160      7151      7164      7167      7161      7160      7151      7164
      7162      7160      7151      7164      7163      7160      7151      7164
      7164      7167      7174      7170      7165      7164      7167      7168
      7165      7164      7167      7169      7165      7164      7167      7174
      7166      7164      7167      7168      7166      7164      7167      7169
      7166      7164      7167      7174      7167      7174      7170      7171
      7167      7174      7170      7172      7167      7174      7170      7173
      7168      7167      7174      7170      7169      7167      7174      7170
      7170      7173      7175      7176      7170      7173      7175      7177
      7170      7173      7175      7178      7171      7170      7173      7175
      7172      7170      7173      7175      7173      7175      7178      7179
      7173      7175      7178      7180      7173      7175      7178      7186
      7174      7170      7173      7175      7175      7178      7180      7181
      7175      7178      7186      7187      7175      7178      7186      7188
      7175      7178      7186      7189      7176      7175      7178      7179
      7176      7175      7178      7180      7176      7175      7178      7186
      7177      7175      7178      7179      7177      7175      7178      7180
      7177      7175      7178      7186      7178      7180      7181      7182
      7178      7180      7181      7183      7178      7186      7189      7190
      7179      7178      7180      7181      7179      7178      7186      7187
      7179      7178      7186      7188      7179      7178      7186      7189
      7180      7178      7186      7187      7180      7178      7186      7188
      7180      7178      7186      7189      7180      7181      7183      7184
      7180      7181      7183      7185      7180      7181      7183      7195
      7181      7180      7178      7186      7181      7183      7195      7196
      7181      7183      7195      7197      7181      7183      7195      7198
      7182      7181      7183      7184      7182      7181      7183      7185
      7182      7181      7183      7195      7183      7195      7198      7199
      7183      7195      7198      7200      7183      7195      7198      7201
      7184      7183      7195      7196      7184      7183      7195      7197
      7184      7183      7195      7198      7185      7183      7195      7196
      7185      7183      7195      7197      7185      7183      7195      7198
      7186      7189      7190      7191      7186      7189      7190      7192
      7187      7186      7189      7190      7188      7186      7189      7190
      7189      7190      7192      7193      7189      7190      7192      7194
      7189      7190      7192      7238      7190      7192      7238      7239
      7190      7192      7238      7240      7190      7192      7238      7241
      7191      7190      7192      7193      7191      7190      7192      7194
      7191      7190      7192      7238      7192      7238      7241      7242
      7192      7238      7241      7243      7192      7238      7241      7244
      7193      7192      7238      7239      7193      7192      7238      7240
      7193      7192      7238      7241      7194      7192      7238      7239
      7194      7192      7238      7240      7194      7192      7238      7241
      7195      7198      7201      7202      7195      7198      7201      7203
      7195      7198      7201      7204      7196      7195      7198      7199
      7196      7195      7198      7200      7196      7195      7198      7201
      7197      7195      7198      7199      7197      7195      7198      7200
      7197      7195      7198      7201      7198      7201      7204      7205
      7198      7201      7204      7206      7198      7201      7204      7207
      7199      7198      7201      7202      7199      7198      7201      7203
      7199      7198      7201      7204      7200      7198      7201      7202
      7200      7198      7201      7203      7200      7198      7201      7204
      7201      7204      7207      7208      7201      7204      7207      7209
      7201      7204      7207      7210      7202      7201      7204      7205
      7202      7201      7204      7206      7202      7201      7204      7207
      7203      7201      7204      7205      7203      7201      7204      7206
      7203      7201      7204      7207      7204      7207      7210      7211
      7204      7207      7210      7212      7204      7207      7210      7213
      7205      7204      7207      7208      7205      7204      7207      7209
      7205      7204      7207      7210      7206      7204      7207      7208
      7206      7204      7207      7209      7206      7204      7207      7210
      7207      7210      7213      7214      7207      7210      7213      7215
      7207      7210      7213      7216      7208      7207      7210      7211
      7208      7207      7210      7212      7208      7207      7210      7213
      7209      7207      7210      7211      7209      7207      7210      7212
      7209      7207      7210      7213      7210      7213      7216      7217
      7210      7213      7216      7218      7210      7213      7216      7219
      7211      7210      7213      7214      7211      7210      7213      7215
      7211      7210      7213      7216      7212      7210      7213      7214
      7212      7210      7213      7215      7212      7210      7213      7216
      7213      7216      7219      7220      7213      7216      7219      7221
      7213      7216      7219      7222      7214      7213      7216      7217
      7214      7213      7216      7218      7214      7213      7216      7219
      7215      7213      7216      7217      7215      7213      7216      7218
      7215      7213      7216      7219      7216      7219      7222      7223
      7216      7219      7222      7224      7216      7219      7222      7225
      7217      7216      7219      7220      7217      7216      7219      7221
      7217      7216      7219      7222      7218      7216      7219      7220
      7218      7216      7219      7221      7218      7216      7219      7222
      7219      7222      7225      7226      7219      7222      7225      7227
      7219      7222      7225      7228      7220      7219      7222      7223
      7220      7219      7222      7224      7220      7219      7222      7225
      7221      7219      7222      7223      7221      7219      7222      7224
      7221      7219      7222      7225      7222      7225      7228      7229
      7222      7225      7228      7230      7222      7225      7228      7231
      7223      7222      7225      7226      7223      7222      7225      7227
      7223      7222      7225      7228      7224      7222      7225      7226
      7224      7222      7225      7227      7224      7222      7225      7228
      7225      7228      7231      7232      7225      7228      7231      7233
      7225      7228      7231      7234      7226      7225      7228      7229
      7226      7225      7228      7230      7226      7225      7228      7231
      7227      7225      7228      7229      7227      7225      7228      7230
      7227      7225      7228      7231      7228      7231      7234      7235
      7228      7231      7234      7236      7228      7231      7234      7237
      7229      7228      7231      7232      7229      7228      7231      7233
      7229      7228      7231      7234      7230      7228      7231      7232
      7230      7228      7231      7233      7230      7228      7231      7234
      7232      7231      7234      7235      7232      7231      7234      7236
      7232      7231      7234      7237      7233      7231      7234      7235
      7233      7231      7234      7236      7233      7231      7234      7237
      7238      7241      7244      7245      7238      7241      7244      7246
      7238      7241      7244      7247      7239      7238      7241      7242
      7239      7238      7241      7243      7239      7238      7241      7244
      7240      7238      7241      7242      7240      7238      7241      7243
      7240      7238      7241      7244      7241      7244      7247      7248
      7241      7244      7247      7249      7241      7244      7247      7250
      7242      7241      7244      7245      7242      7241      7244      7246
      7242      7241      7244      7247      7243      7241      7244      7245
      7243      7241      7244      7246      7243      7241      7244      7247
      7244      7247      7250      7251      7244      7247      7250      7252
      7244      7247      7250      7253      7245      7244      7247      7248
      7245      7244      7247      7249      7245      7244      7247      7250
      7246      7244      7247      7248      7246      7244      7247      7249
      7246      7244      7247      7250      7247      7250      7253      7254
      7247      7250      7253      7255      7247      7250      7253      7256
      7248      7247      7250      7251      7248      7247      7250      7252
      7248      7247      7250      7253      7249      7247      7250      7251
      7249      7247      7250      7252      7249      7247      7250      7253
      7250      7253      7256      7257      7250      7253      7256      7258
      7250      7253      7256      7259      7251      7250      7253      7254
      7251      7250      7253      7255      7251      7250      7253      7256
      7252      7250      7253      7254      7252      7250      7253      7255
      7252      7250      7253      7256      7253      7256      7259      7260
      7253      7256      7259      7261      7253      7256      7259      7262
      7254      7253      7256      7257      7254      7253      7256      7258
      7254      7253      7256      7259      7255      7253      7256      7257
      7255      7253      7256      7258      7255      7253      7256      7259
      7256      7259      7262      7263      7256      7259      7262      7264
      7256      7259      7262      7265      7257      7256      7259      7260
      7257      7256      7259      7261      7257      7256      7259      7262
      7258      7256      7259      7260      7258      7256      7259      7261
      7258      7256      7259      7262      7259      7262      7265      7266
      7259      7262      7265      7267      7259      7262      7265      7268
      7260      7259      7262      7263      7260      7259      7262      7264
      7260      7259      7262      7265      7261      7259      7262      7263
      7261      7259      7262      7264      7261      7259      7262      7265
      7262      7265      7268      7269      7262      7265      7268      7270
      7262      7265      7268      7271      7263      7262      7265      7266
      7263      7262      7265      7267      7263      7262      7265      7268
      7264      7262      7265      7266      7264      7262      7265      7267
      7264      7262      7265      7268      7265      7268      7271      7272
      7265      7268      7271      7273      7265      7268      7271      7274
      7266      7265      7268      7269      7266      7265      7268      7270
      7266      7265      7268      7271      7267      7265      7268      7269
      7267      7265      7268      7270      7267      7265      7268      7271
      7268      7271      7274      7275      7268      7271      7274      7276
      7268      7271      7274      7277      7269      7268      7271      7272
      7269      7268      7271      7273      7269      7268      7271      7274
      7270      7268      7271      7272      7270      7268      7271      7273
      7270      7268      7271      7274      7271      7274      7277      7278
      7271      7274      7277      7279      7271      7274      7277      7280
      7272      7271      7274      7275      7272      7271      7274      7276
      7272      7271      7274      7277      7273      7271      7274      7275
      7273      7271      7274      7276      7273      7271      7274      7277
      7275      7274      7277      7278      7275      7274      7277      7279
      7275      7274      7277      7280      7276      7274      7277      7278
      7276      7274      7277      7279      7276      7274      7277      7280
      7281      7294      7297      7298      7281      7294      7297      7299
      7281      7294      7297      7304      7282      7281      7286      7287
      7282      7281      7286      7288      7282      7281      7286      7289
      7282      7281      7290      7291      7282      7281      7290      7292
      7282      7281      7290      7293      7282      7281      7294      7295
      7282      7281      7294      7296      7282      7281      7294      7297
      7283      7282      7281      7286      7283      7282      7281      7290
      7283      7282      7281      7294      7284      7282      7281      7286
      7284      7282      7281      7290      7284      7282      7281      7294
      7285      7282      7281      7286      7285      7282      7281      7290
      7285      7282      7281      7294      7286      7281      7290      7291
      7286      7281      7290      7292      7286      7281      7290      7293
      7286      7281      7294      7295      7286      7281      7294      7296
      7286      7281      7294      7297      7287      7286      7281      7290
      7287      7286      7281      7294      7288      7286      7281      7290
      7288      7286      7281      7294      7289      7286      7281      7290
      7289      7286      7281      7294      7290      7281      7294      7295
      7290      7281      7294      7296      7290      7281      7294      7297
      7291      7290      7281      7294      7292      7290      7281      7294
      7293      7290      7281      7294      7294      7297      7304      7300
      7295      7294      7297      7298      7295      7294      7297      7299
      7295      7294      7297      7304      7296      7294      7297      7298
      7296      7294      7297      7299      7296      7294      7297      7304
      7297      7304      7300      7301      7297      7304      7300      7302
      7297      7304      7300      7303      7298      7297      7304      7300
      7299      7297      7304      7300      7300      7303      7305      7306
      7300      7303      7305      7307      7300      7303      7305      7308
      7301      7300      7303      7305      7302      7300      7303      7305
      7303      7305      7308      7309      7303      7305      7308      7310
      7303      7305      7308      7316      7304      7300      7303      7305
      7305      7308      7310      7311      7305      7308      7316      7317
      7305      7308      7316      7318      7305      7308      7316      7319
      7306      7305      7308      7309      7306      7305      7308      7310
      7306      7305      7308      7316      7307      7305      7308      7309
      7307      7305      7308      7310      7307      7305      7308      7316
      7308      7310      7311      7312      7308      7310      7311      7313
      7308      7316      7319      7320      7309      7308      7310      7311
      7309      7308      7316      7317      7309      7308      7316      7318
      7309      7308      7316      7319      7310      7308      7316      7317
      7310      7308      7316      7318      7310      7308      7316      7319
      7310      7311      7313      7314      7310      7311      7313      7315
      7310      7311      7313      7325      7311      7310      7308      7316
      7311      7313      7325      7326      7311      7313      7325      7327
      7311      7313      7325      7328      7312      7311      7313      7314
      7312      7311      7313      7315      7312      7311      7313      7325
      7313      7325      7328      7329      7313      7325      7328      7330
      7313      7325      7328      7331      7314      7313      7325      7326
      7314      7313      7325      7327      7314      7313      7325      7328
      7315      7313      7325      7326      7315      7313      7325      7327
      7315      7313      7325      7328      7316      7319      7320      7321
      7316      7319      7320      7322      7317      7316      7319      7320
      7318      7316      7319      7320      7319      7320      7322      7323
      7319      7320      7322      7324      7319      7320      7322      7368
      7320      7322      7368      7369      7320      7322      7368      7370
      7320      7322      7368      7371      7321      7320      7322      7323
      7321      7320      7322      7324      7321      7320      7322      7368
      7322      7368      7371      7372      7322      7368      7371      7373
      7322      7368      7371      7374      7323      7322      7368      7369
      7323      7322      7368      7370      7323      7322      7368      7371
      7324      7322      7368      7369      7324      7322      7368      7370
      7324      7322      7368      7371      7325      7328      7331      7332
      7325      7328      7331      7333      7325      7328      7331      7334
      7326      7325      7328      7329      7326      7325      7328      7330
      7326      7325      7328      7331      7327      7325      7328      7329
      7327      7325      7328      7330      7327      7325      7328      7331
      7328      7331      7334      7335      7328      7331      7334      7336
      7328      7331      7334      7337      7329      7328      7331      7332
      7329      7328      7331      7333      7329      7328      7331      7334
      7330      7328      7331      7332      7330      7328      7331      7333
      7330      7328      7331      7334      7331      7334      7337      7338
      7331      7334      7337      7339      7331      7334      7337      7340
      7332      7331      7334      7335      7332      7331      7334      7336
      7332      7331      7334      7337      7333      7331      7334      7335
      7333      7331      7334      7336      7333      7331      7334      7337
      7334      7337      7340      7341      7334      7337      7340      7342
      7334      7337      7340      7343      7335      7334      7337      7338
      7335      7334      7337      7339      7335      7334      7337      7340
      7336      7334      7337      7338      7336      7334      7337      7339
      7336      7334      7337      7340      7337      7340      7343      7344
      7337      7340      7343      7345      7337      7340      7343      7346
      7338      7337      7340      7341      7338      7337      7340      7342
      7338      7337      7340      7343      7339      7337      7340      7341
      7339      7337      7340      7342      7339      7337      7340      7343
      7340      7343      7346      7347      7340      7343      7346      7348
      7340      7343      7346      7349      7341      7340      7343      7344
      7341      7340      7343      7345      7341      7340      7343      7346
      7342      7340      7343      7344      7342      7340      7343      7345
      7342      7340      7343      7346      7343      7346      7349      7350
      7343      7346      7349      7351      7343      7346      7349      7352
      7344      7343      7346      7347      7344      7343      7346      7348
      7344      7343      7346      7349      7345      7343      7346      7347
      7345      7343      7346      7348      7345      7343      7346      7349
      7346      7349      7352      7353      7346      7349      7352      7354
      7346      7349      7352      7355      7347      7346      7349      7350
      7347      7346      7349      7351      7347      7346      7349      7352
      7348      7346      7349      7350      7348      7346      7349      7351
      7348      7346      7349      7352      7349      7352      7355      7356
      7349      7352      7355      7357      7349      7352      7355      7358
      7350      7349      7352      7353      7350      7349      7352      7354
      7350      7349      7352      7355      7351      7349      7352      7353
      7351      7349      7352      7354      7351      7349      7352      7355
      7352      7355      7358      7359      7352      7355      7358      7360
      7352      7355      7358      7361      7353      7352      7355      7356
      7353      7352      7355      7357      7353      7352      7355      7358
      7354      7352      7355      7356      7354      7352      7355      7357
      7354      7352      7355      7358      7355      7358      7361      7362
      7355      7358      7361      7363      7355      7358      7361      7364
      7356      7355      7358      7359      7356      7355      7358      7360
      7356      7355      7358      7361      7357      7355      7358      7359
      7357      7355      7358      7360      7357      7355      7358      7361
      7358      7361      7364      7365      7358      7361      7364      7366
      7358      7361      7364      7367      7359      7358      7361      7362
      7359      7358      7361      7363      7359      7358      7361      7364
      7360      7358      7361      7362      7360      7358      7361      7363
      7360      7358      7361      7364      7362      7361      7364      7365
      7362      7361      7364      7366      7362      7361      7364      7367
      7363      7361      7364      7365      7363      7361      7364      7366
      7363      7361      7364      7367      7368      7371      7374      7375
      7368      7371      7374      7376      7368      7371      7374      7377
      7369      7368      7371      7372      7369      7368      7371      7373
      7369      7368      7371      7374      7370      7368      7371      7372
      7370      7368      7371      7373      7370      7368      7371      7374
      7371      7374      7377      7378      7371      7374      7377      7379
      7371      7374      7377      7380      7372      7371      7374      7375
      7372      7371      7374      7376      7372      7371      7374      7377
      7373      7371      7374      7375      7373      7371      7374      7376
      7373      7371      7374      7377      7374      7377      7380      7381
      7374      7377      7380      7382      7374      7377      7380      7383
      7375      7374      7377      7378      7375      7374      7377      7379
      7375      7374      7377      7380      7376      7374      7377      7378
      7376      7374      7377      7379      7376      7374      7377      7380
      7377      7380      7383      7384      7377      7380      7383      7385
      7377      7380      7383      7386      7378      7377      7380      7381
      7378      7377      7380      7382      7378      7377      7380      7383
      7379      7377      7380      7381      7379      7377      7380      7382
      7379      7377      7380      7383      7380      7383      7386      7387
      7380      7383      7386      7388      7380      7383      7386      7389
      7381      7380      7383      7384      7381      7380      7383      7385
      7381      7380      7383      7386      7382      7380      7383      7384
      7382      7380      7383      7385      7382      7380      7383      7386
      7383      7386      7389      7390      7383      7386      7389      7391
      7383      7386      7389      7392      7384      7383      7386      7387
      7384      7383      7386      7388      7384      7383      7386      7389
      7385      7383      7386      7387      7385      7383      7386      7388
      7385      7383      7386      7389      7386      7389      7392      7393
      7386      7389      7392      7394      7386      7389      7392      7395
      7387      7386      7389      7390      7387      7386      7389      7391
      7387      7386      7389      7392      7388      7386      7389      7390
      7388      7386      7389      7391      7388      7386      7389      7392
      7389      7392      7395      7396      7389      7392      7395      7397
      7389      7392      7395      7398      7390      7389      7392      7393
      7390      7389      7392      7394      7390      7389      7392      7395
      7391      7389      7392      7393      7391      7389      7392      7394
      7391      7389      7392      7395      7392      7395      7398      7399
      7392      7395      7398      7400      7392      7395      7398      7401
      7393      7392      7395      7396      7393      7392      7395      7397
      7393      7392      7395      7398      7394      7392      7395      7396
      7394      7392      7395      7397      7394      7392      7395      7398
      7395      7398      7401      7402      7395      7398      7401      7403
      7395      7398      7401      7404      7396      7395      7398      7399
      7396      7395      7398      7400      7396      7395      7398      7401
      7397      7395      7398      7399      7397      7395      7398      7400
      7397      7395      7398      7401      7398      7401      7404      7405
      7398      7401      7404      7406      7398      7401      7404      7407
      7399      7398      7401      7402      7399      7398      7401      7403
      7399      7398      7401      7404      7400      7398      7401      7402
      7400      7398      7401      7403      7400      7398      7401      7404
      7401      7404      7407      7408      7401      7404      7407      7409
      7401      7404      7407      7410      7402      7401      7404      7405
      7402      7401      7404      7406      7402      7401      7404      7407
      7403      7401      7404      7405      7403      7401      7404      7406
      7403      7401      7404      7407      7405      7404      7407      7408
      7405      7404      7407      7409      7405      7404      7407      7410
      7406      7404      7407      7408      7406      7404      7407      7409
      7406      7404      7407      7410      7411      7424      7427      7428
      7411      7424      7427      7429      7411      7424      7427      7434
      7412      7411      7416      7417      7412      7411      7416      7418
      7412      7411      7416      7419      7412      7411      7420      7421
      7412      7411      7420      7422      7412      7411      7420      7423
      7412      7411      7424      7425      7412      7411      7424      7426
      7412      7411      7424      7427      7413      7412      7411      7416
      7413      7412      7411      7420      7413      7412      7411      7424
      7414      7412      7411      7416      7414      7412      7411      7420
      7414      7412      7411      7424      7415      7412      7411      7416
      7415      7412      7411      7420      7415      7412      7411      7424
      7416      7411      7420      7421      7416      7411      7420      7422
      7416      7411      7420      7423      7416      7411      7424      7425
      7416      7411      7424      7426      7416      7411      7424      7427
      7417      7416      7411      7420      7417      7416      7411      7424
      7418      7416      7411      7420      7418      7416      7411      7424
      7419      7416      7411      7420      7419      7416      7411      7424
      7420      7411      7424      7425      7420      7411      7424      7426
      7420      7411      7424      7427      7421      7420      7411      7424
      7422      7420      7411      7424      7423      7420      7411      7424
      7424      7427      7434      7430      7425      7424      7427      7428
      7425      7424      7427      7429      7425      7424      7427      7434
      7426      7424      7427      7428      7426      7424      7427      7429
      7426      7424      7427      7434      7427      7434      7430      7431
      7427      7434      7430      7432      7427      7434      7430      7433
      7428      7427      7434      7430      7429      7427      7434      7430
      7430      7433      7435      7436      7430      7433      7435      7437
      7430      7433      7435      7438      7431      7430      7433      7435
      7432      7430      7433      7435      7433      7435      7438      7439
      7433      7435      7438      7440      7433      7435      7438      7446
      7434      7430      7433      7435      7435      7438      7440      7441
      7435      7438      7446      7447      7435      7438      7446      7448
      7435      7438      7446      7449      7436      7435      7438      7439
      7436      7435      7438      7440      7436      7435      7438      7446
      7437      7435      7438      7439      7437      7435      7438      7440
      7437      7435      7438      7446      7438      7440      7441      7442
      7438      7440      7441      7443      7438      7446      7449      7450
      7439      7438      7440      7441      7439      7438      7446      7447
      7439      7438      7446      7448      7439      7438      7446      7449
      7440      7438      7446      7447      7440      7438      7446      7448
      7440      7438      7446      7449      7440      7441      7443      7444
      7440      7441      7443      7445      7440      7441      7443      7455
      7441      7440      7438      7446      7441      7443      7455      7456
      7441      7443      7455      7457      7441      7443      7455      7458
      7442      7441      7443      7444      7442      7441      7443      7445
      7442      7441      7443      7455      7443      7455      7458      7459
      7443      7455      7458      7460      7443      7455      7458      7461
      7444      7443      7455      7456      7444      7443      7455      7457
      7444      7443      7455      7458      7445      7443      7455      7456
      7445      7443      7455      7457      7445      7443      7455      7458
      7446      7449      7450      7451      7446      7449      7450      7452
      7447      7446      7449      7450      7448      7446      7449      7450
      7449      7450      7452      7453      7449      7450      7452      7454
      7449      7450      7452      7498      7450      7452      7498      7499
      7450      7452      7498      7500      7450      7452      7498      7501
      7451      7450      7452      7453      7451      7450      7452      7454
      7451      7450      7452      7498      7452      7498      7501      7502
      7452      7498      7501      7503      7452      7498      7501      7504
      7453      7452      7498      7499      7453      7452      7498      7500
      7453      7452      7498      7501      7454      7452      7498      7499
      7454      7452      7498      7500      7454      7452      7498      7501
      7455      7458      7461      7462      7455      7458      7461      7463
      7455      7458      7461      7464      7456      7455      7458      7459
      7456      7455      7458      7460      7456      7455      7458      7461
      7457      7455      7458      7459      7457      7455      7458      7460
      7457      7455      7458      7461      7458      7461      7464      7465
      7458      7461      7464      7466      7458      7461      7464      7467
      7459      7458      7461      7462      7459      7458      7461      7463
      7459      7458      7461      7464      7460      7458      7461      7462
      7460      7458      7461      7463      7460      7458      7461      7464
      7461      7464      7467      7468      7461      7464      7467      7469
      7461      7464      7467      7470      7462      7461      7464      7465
      7462      7461      7464      7466      7462      7461      7464      7467
      7463      7461      7464      7465      7463      7461      7464      7466
      7463      7461      7464      7467      7464      7467      7470      7471
      7464      7467      7470      7472      7464      7467      7470      7473
      7465      7464      7467      7468      7465      7464      7467      7469
      7465      7464      7467      7470      7466      7464      7467      7468
      7466      7464      7467      7469      7466      7464      7467      7470
      7467      7470      7473      7474      7467      7470      7473      7475
      7467      7470      7473      7476      7468      7467      7470      7471
      7468      7467      7470      7472      7468      7467      7470      7473
      7469      7467      7470      7471      7469      7467      7470      7472
      7469      7467      7470      7473      7470      7473      7476      7477
      7470      7473      7476      7478      7470      7473      7476      7479
      7471      7470      7473      7474      7471      7470      7473      7475
      7471      7470      7473      7476      7472      7470      7473      7474
      7472      7470      7473      7475      7472      7470      7473      7476
      7473      7476      7479      7480      7473      7476      7479      7481
      7473      7476      7479      7482      7474      7473      7476      7477
      7474      7473      7476      7478      7474      7473      7476      7479
      7475      7473      7476      7477      7475      7473      7476      7478
      7475      7473      7476      7479      7476      7479      7482      7483
      7476      7479      7482      7484      7476      7479      7482      7485
      7477      7476      7479      7480      7477      7476      7479      7481
      7477      7476      7479      7482      7478      7476      7479      7480
      7478      7476      7479      7481      7478      7476      7479      7482
      7479      7482      7485      7486      7479      7482      7485      7487
      7479      7482      7485      7488      7480      7479      7482      7483
      7480      7479      7482      7484      7480      7479      7482      7485
      7481      7479      7482      7483      7481      7479      7482      7484
      7481      7479      7482      7485      7482      7485      7488      7489
      7482      7485      7488      7490      7482      7485      7488      7491
      7483      7482      7485      7486      7483      7482      7485      7487
      7483      7482      7485      7488      7484      7482      7485      7486
      7484      7482      7485      7487      7484      7482      7485      7488
      7485      7488      7491      7492      7485      7488      7491      7493
      7485      7488      7491      7494      7486      7485      7488      7489
      7486      7485      7488      7490      7486      7485      7488      7491
      7487      7485      7488      7489      7487      7485      7488      7490
      7487      7485      7488      7491      7488      7491      7494      7495
      7488      7491      7494      7496      7488      7491      7494      7497
      7489      7488      7491      7492      7489      7488      7491      7493
      7489      7488      7491      7494      7490      7488      7491      7492
      7490      7488      7491      7493      7490      7488      7491      7494
      7492      7491      7494      7495      7492      7491      7494      7496
      7492      7491      7494      7497      7493      7491      7494      7495
      7493      7491      7494      7496      7493      7491      7494      7497
      7498      7501      7504      7505      7498      7501      7504      7506
      7498      7501      7504      7507      7499      7498      7501      7502
      7499      7498      7501      7503      7499      7498      7501      7504
      7500      7498      7501      7502      7500      7498      7501      7503
      7500      7498      7501      7504      7501      7504      7507      7508
      7501      7504      7507      7509      7501      7504      7507      7510
      7502      7501      7504      7505      7502      7501      7504      7506
      7502      7501      7504      7507      7503      7501      7504      7505
      7503      7501      7504      7506      7503      7501      7504      7507
      7504      7507      7510      7511      7504      7507      7510      7512
      7504      7507      7510      7513      7505      7504      7507      7508
      7505      7504      7507      7509      7505      7504      7507      7510
      7506      7504      7507      7508      7506      7504      7507      7509
      7506      7504      7507      7510      7507      7510      7513      7514
      7507      7510      7513      7515      7507      7510      7513      7516
      7508      7507      7510      7511      7508      7507      7510      7512
      7508      7507      7510      7513      7509      7507      7510      7511
      7509      7507      7510      7512      7509      7507      7510      7513
      7510      7513      7516      7517      7510      7513      7516      7518
      7510      7513      7516      7519      7511      7510      7513      7514
      7511      7510      7513      7515      7511      7510      7513      7516
      7512      7510      7513      7514      7512      7510      7513      7515
      7512      7510      7513      7516      7513      7516      7519      7520
      7513      7516      7519      7521      7513      7516      7519      7522
      7514      7513      7516      7517      7514      7513      7516      7518
      7514      7513      7516      7519      7515      7513      7516      7517
      7515      7513      7516      7518      7515      7513      7516      7519
      7516      7519      7522      7523      7516      7519      7522      7524
      7516      7519      7522      7525      7517      7516      7519      7520
      7517      7516      7519      7521      7517      7516      7519      7522
      7518      7516      7519      7520      7518      7516      7519      7521
      7518      7516      7519      7522      7519      7522      7525      7526
      7519      7522      7525      7527      7519      7522      7525      7528
      7520      7519      7522      7523      7520      7519      7522      7524
      7520      7519      7522      7525      7521      7519      7522      7523
      7521      7519      7522      7524      7521      7519      7522      7525
      7522      7525      7528      7529      7522      7525      7528      7530
      7522      7525      7528      7531      7523      7522      7525      7526
      7523      7522      7525      7527      7523      7522      7525      7528
      7524      7522      7525      7526      7524      7522      7525      7527
      7524      7522      7525      7528      7525      7528      7531      7532
      7525      7528      7531      7533      7525      7528      7531      7534
      7526      7525      7528      7529      7526      7525      7528      7530
      7526      7525      7528      7531      7527      7525      7528      7529
      7527      7525      7528      7530      7527      7525      7528      7531
      7528      7531      7534      7535      7528      7531      7534      7536
      7528      7531      7534      7537      7529      7528      7531      7532
      7529      7528      7531      7533      7529      7528      7531      7534
      7530      7528      7531      7532      7530      7528      7531      7533
      7530      7528      7531      7534      7531      7534      7537      7538
      7531      7534      7537      7539      7531      7534      7537      7540
      7532      7531      7534      7535      7532      7531      7534      7536
      7532      7531      7534      7537      7533      7531      7534      7535
      7533      7531      7534      7536      7533      7531      7534      7537
      7535      7534      7537      7538      7535      7534      7537      7539
      7535      7534      7537      7540      7536      7534      7537      7538
      7536      7534      7537      7539      7536      7534      7537      7540
      7541      7554      7557      7558      7541      7554      7557      7559
      7541      7554      7557      7564      7542      7541      7546      7547
      7542      7541      7546      7548      7542      7541      7546      7549
      7542      7541      7550      7551      7542      7541      7550      7552
      7542      7541      7550      7553      7542      7541      7554      7555
      7542      7541      7554      7556      7542      7541      7554      7557
      7543      7542      7541      7546      7543      7542      7541      7550
      7543      7542      7541      7554      7544      7542      7541      7546
      7544      7542      7541      7550      7544      7542      7541      7554
      7545      7542      7541      7546      7545      7542      7541      7550
      7545      7542      7541      7554      7546      7541      7550      7551
      7546      7541      7550      7552      7546      7541      7550      7553
      7546      7541      7554      7555      7546      7541      7554      7556
      7546      7541      7554      7557      7547      7546      7541      7550
      7547      7546      7541      7554      7548      7546      7541      7550
      7548      7546      7541      7554      7549      7546      7541      7550
      7549      7546      7541      7554      7550      7541      7554      7555
      7550      7541      7554      7556      7550      7541      7554      7557
      7551      7550      7541      7554      7552      7550      7541      7554
      7553      7550      7541      7554      7554      7557      7564      7560
      7555      7554      7557      7558      7555      7554      7557      7559
      7555      7554      7557      7564      7556      7554      7557      7558
      7556      7554      7557      7559      7556      7554      7557      7564
      7557      7564      7560      7561      7557      7564      7560      7562
      7557      7564      7560      7563      7558      7557      7564      7560
      7559      7557      7564      7560      7560      7563      7565      7566
      7560      7563      7565      7567      7560      7563      7565      7568
      7561      7560      7563      7565      7562      7560      7563      7565
      7563      7565      7568      7569      7563      7565      7568      7570
      7563      7565      7568      7576      7564      7560      7563      7565
      7565      7568      7570      7571      7565      7568      7576      7577
      7565      7568      7576      7578      7565      7568      7576      7579
      7566      7565      7568      7569      7566      7565      7568      7570
      7566      7565      7568      7576      7567      7565      7568      7569
      7567      7565      7568      7570      7567      7565      7568      7576
      7568      7570      7571      7572      7568      7570      7571      7573
      7568      7576      7579      7580      7569      7568      7570      7571
      7569      7568      7576      7577      7569      7568      7576      7578
      7569      7568      7576      7579      7570      7568      7576      7577
      7570      7568      7576      7578      7570      7568      7576      7579
      7570      7571      7573      7574      7570      7571      7573      7575
      7570      7571      7573      7585      7571      7570      7568      7576
      7571      7573      7585      7586      7571      7573      7585      7587
      7571      7573      7585      7588      7572      7571      7573      7574
      7572      7571      7573      7575      7572      7571      7573      7585
      7573      7585      7588      7589      7573      7585      7588      7590
      7573      7585      7588      7591      7574      7573      7585      7586
      7574      7573      7585      7587      7574      7573      7585      7588
      7575      7573      7585      7586      7575      7573      7585      7587
      7575      7573      7585      7588      7576      7579      7580      7581
      7576      7579      7580      7582      7577      7576      7579      7580
      7578      7576      7579      7580      7579      7580      7582      7583
      7579      7580      7582      7584      7579      7580      7582      7628
      7580      7582      7628      7629      7580      7582      7628      7630
      7580      7582      7628      7631      7581      7580      7582      7583
      7581      7580      7582      7584      7581      7580      7582      7628
      7582      7628      7631      7632      7582      7628      7631      7633
      7582      7628      7631      7634      7583      7582      7628      7629
      7583      7582      7628      7630      7583      7582      7628      7631
      7584      7582      7628      7629      7584      7582      7628      7630
      7584      7582      7628      7631      7585      7588      7591      7592
      7585      7588      7591      7593      7585      7588      7591      7594
      7586      7585      7588      7589      7586      7585      7588      7590
      7586      7585      7588      7591      7587      7585      7588      7589
      7587      7585      7588      7590      7587      7585      7588      7591
      7588      7591      7594      7595      7588      7591      7594      7596
      7588      7591      7594      7597      7589      7588      7591      7592
      7589      7588      7591      7593      7589      7588      7591      7594
      7590      7588      7591      7592      7590      7588      7591      7593
      7590      7588      7591      7594      7591      7594      7597      7598
      7591      7594      7597      7599      7591      7594      7597      7600
      7592      7591      7594      7595      7592      7591      7594      7596
      7592      7591      7594      7597      7593      7591      7594      7595
      7593      7591      7594      7596      7593      7591      7594      7597
      7594      7597      7600      7601      7594      7597      7600      7602
      7594      7597      7600      7603      7595      7594      7597      7598
      7595      7594      7597      7599      7595      7594      7597      7600
      7596      7594      7597      7598      7596      7594      7597      7599
      7596      7594      7597      7600      7597      7600      7603      7604
      7597      7600      7603      7605      7597      7600      7603      7606
      7598      7597      7600      7601      7598      7597      7600      7602
      7598      7597      7600      7603      7599      7597      7600      7601
      7599      7597      7600      7602      7599      7597      7600      7603
      7600      7603      7606      7607      7600      7603      7606      7608
      7600      7603      7606      7609      7601      7600      7603      7604
      7601      7600      7603      7605      7601      7600      7603      7606
      7602      7600      7603      7604      7602      7600      7603      7605
      7602      7600      7603      7606      7603      7606      7609      7610
      7603      7606      7609      7611      7603      7606      7609      7612
      7604      7603      7606      7607      7604      7603      7606      7608
      7604      7603      7606      7609      7605      7603      7606      7607
      7605      7603      7606      7608      7605      7603      7606      7609
      7606      7609      7612      7613      7606      7609      7612      7614
      7606      7609      7612      7615      7607      7606      7609      7610
      7607      7606      7609      7611      7607      7606      7609      7612
      7608      7606      7609      7610      7608      7606      7609      7611
      7608      7606      7609      7612      7609      7612      7615      7616
      7609      7612      7615      7617      7609      7612      7615      7618
      7610      7609      7612      7613      7610      7609      7612      7614
      7610      7609      7612      7615      7611      7609      7612      7613
      7611      7609      7612      7614      7611      7609      7612      7615
      7612      7615      7618      7619      7612      7615      7618      7620
      7612      7615      7618      7621      7613      7612      7615      7616
      7613      7612      7615      7617      7613      7612      7615      7618
      7614      7612      7615      7616      7614      7612      7615      7617
      7614      7612      7615      7618      7615      7618      7621      7622
      7615      7618      7621      7623      7615      7618      7621      7624
      7616      7615      7618      7619      7616      7615      7618      7620
      7616      7615      7618      7621      7617      7615      7618      7619
      7617      7615      7618      7620      7617      7615      7618      7621
      7618      7621      7624      7625      7618      7621      7624      7626
      7618      7621      7624      7627      7619      7618      7621      7622
      7619      7618      7621      7623      7619      7618      7621      7624
      7620      7618      7621      7622      7620      7618      7621      7623
      7620      7618      7621      7624      7622      7621      7624      7625
      7622      7621      7624      7626      7622      7621      7624      7627
      7623      7621      7624      7625      7623      7621      7624      7626
      7623      7621      7624      7627      7628      7631      7634      7635
      7628      7631      7634      7636      7628      7631      7634      7637
      7629      7628      7631      7632      7629      7628      7631      7633
      7629      7628      7631      7634      7630      7628      7631      7632
      7630      7628      7631      7633      7630      7628      7631      7634
      7631      7634      7637      7638      7631      7634      7637      7639
      7631      7634      7637      7640      7632      7631      7634      7635
      7632      7631      7634      7636      7632      7631      7634      7637
      7633      7631      7634      7635      7633      7631      7634      7636
      7633      7631      7634      7637      7634      7637      7640      7641
      7634      7637      7640      7642      7634      7637      7640      7643
      7635      7634      7637      7638      7635      7634      7637      7639
      7635      7634      7637      7640      7636      7634      7637      7638
      7636      7634      7637      7639      7636      7634      7637      7640
      7637      7640      7643      7644      7637      7640      7643      7645
      7637      7640      7643      7646      7638      7637      7640      7641
      7638      7637      7640      7642      7638      7637      7640      7643
      7639      7637      7640      7641      7639      7637      7640      7642
      7639      7637      7640      7643      7640      7643      7646      7647
      7640      7643      7646      7648      7640      7643      7646      7649
      7641      7640      7643      7644      7641      7640      7643      7645
      7641      7640      7643      7646      7642      7640      7643      7644
      7642      7640      7643      7645      7642      7640      7643      7646
      7643      7646      7649      7650      7643      7646      7649      7651
      7643      7646      7649      7652      7644      7643      7646      7647
      7644      7643      7646      7648      7644      7643      7646      7649
      7645      7643      7646      7647      7645      7643      7646      7648
      7645      7643      7646      7649      7646      7649      7652      7653
      7646      7649      7652      7654      7646      7649      7652      7655
      7647      7646      7649      7650      7647      7646      7649      7651
      7647      7646      7649      7652      7648      7646      7649      7650
      7648      7646      7649      7651      7648      7646      7649      7652
      7649      7652      7655      7656      7649      7652      7655      7657
      7649      7652      7655      7658      7650      7649      7652      7653
      7650      7649      7652      7654      7650      7649      7652      7655
      7651      7649      7652      7653      7651      7649      7652      7654
      7651      7649      7652      7655      7652      7655      7658      7659
      7652      7655      7658      7660      7652      7655      7658      7661
      7653      7652      7655      7656      7653      7652      7655      7657
      7653      7652      7655      7658      7654      7652      7655      7656
      7654      7652      7655      7657      7654      7652      7655      7658
      7655      7658      7661      7662      7655      7658      7661      7663
      7655      7658      7661      7664      7656      7655      7658      7659
      7656      7655      7658      7660      7656      7655      7658      7661
      7657      7655      7658      7659      7657      7655      7658      7660
      7657      7655      7658      7661      7658      7661      7664      7665
      7658      7661      7664      7666      7658      7661      7664      7667
      7659      7658      7661      7662      7659      7658      7661      7663
      7659      7658      7661      7664      7660      7658      7661      7662
      7660      7658      7661      7663      7660      7658      7661      7664
      7661      7664      7667      7668      7661      7664      7667      7669
      7661      7664      7667      7670      7662      7661      7664      7665
      7662      7661      7664      7666      7662      7661      7664      7667
      7663      7661      7664      7665      7663      7661      7664      7666
      7663      7661      7664      7667      7665      7664      7667      7668
      7665      7664      7667      7669      7665      7664      7667      7670
      7666      7664      7667      7668      7666      7664      7667      7669
      7666      7664      7667      7670      7671      7684      7687      7688
      7671      7684      7687      7689      7671      7684      7687      7694
      7672      7671      7676      7677      7672      7671      7676      7678
      7672      7671      7676      7679      7672      7671      7680      7681
      7672      7671      7680      7682      7672      7671      7680      7683
      7672      7671      7684      7685      7672      7671      7684      7686
      7672      7671      7684      7687      7673      7672      7671      7676
      7673      7672      7671      7680      7673      7672      7671      7684
      7674      7672      7671      7676      7674      7672      7671      7680
      7674      7672      7671      7684      7675      7672      7671      7676
      7675      7672      7671      7680      7675      7672      7671      7684
      7676      7671      7680      7681      7676      7671      7680      7682
      7676      7671      7680      7683      7676      7671      7684      7685
      7676      7671      7684      7686      7676      7671      7684      7687
      7677      7676      7671      7680      7677      7676      7671      7684
      7678      7676      7671      7680      7678      7676      7671      7684
      7679      7676      7671      7680      7679      7676      7671      7684
      7680      7671      7684      7685      7680      7671      7684      7686
      7680      7671      7684      7687      7681      7680      7671      7684
      7682      7680      7671      7684      7683      7680      7671      7684
      7684      7687      7694      7690      7685      7684      7687      7688
      7685      7684      7687      7689      7685      7684      7687      7694
      7686      7684      7687      7688      7686      7684      7687      7689
      7686      7684      7687      7694      7687      7694      7690      7691
      7687      7694      7690      7692      7687      7694      7690      7693
      7688      7687      7694      7690      7689      7687      7694      7690
      7690      7693      7695      7696      7690      7693      7695      7697
      7690      7693      7695      7698      7691      7690      7693      7695
      7692      7690      7693      7695      7693      7695      7698      7699
      7693      7695      7698      7700      7693      7695      7698      7706
      7694      7690      7693      7695      7695      7698      7700      7701
      7695      7698      7706      7707      7695      7698      7706      7708
      7695      7698      7706      7709      7696      7695      7698      7699
      7696      7695      7698      7700      7696      7695      7698      7706
      7697      7695      7698      7699      7697      7695      7698      7700
      7697      7695      7698      7706      7698      7700      7701      7702
      7698      7700      7701      7703      7698      7706      7709      7710
      7699      7698      7700      7701      7699      7698      7706      7707
      7699      7698      7706      7708      7699      7698      7706      7709
      7700      7698      7706      7707      7700      7698      7706      7708
      7700      7698      7706      7709      7700      7701      7703      7704
      7700      7701      7703      7705      7700      7701      7703      7715
      7701      7700      7698      7706      7701      7703      7715      7716
      7701      7703      7715      7717      7701      7703      7715      7718
      7702      7701      7703      7704      7702      7701      7703      7705
      7702      7701      7703      7715      7703      7715      7718      7719
      7703      7715      7718      7720      7703      7715      7718      7721
      7704      7703      7715      7716      7704      7703      7715      7717
      7704      7703      7715      7718      7705      7703      7715      7716
      7705      7703      7715      7717      7705      7703      7715      7718
      7706      7709      7710      7711      7706      7709      7710      7712
      7707      7706      7709      7710      7708      7706      7709      7710
      7709      7710      7712      7713      7709      7710      7712      7714
      7709      7710      7712      7758      7710      7712      7758      7759
      7710      7712      7758      7760      7710      7712      7758      7761
      7711      7710      7712      7713      7711      7710      7712      7714
      7711      7710      7712      7758      7712      7758      7761      7762
      7712      7758      7761      7763      7712      7758      7761      7764
      7713      7712      7758      7759      7713      7712      7758      7760
      7713      7712      7758      7761      7714      7712      7758      7759
      7714      7712      7758      7760      7714      7712      7758      7761
      7715      7718      7721      7722      7715      7718      7721      7723
      7715      7718      7721      7724      7716      7715      7718      7719
      7716      7715      7718      7720      7716      7715      7718      7721
      7717      7715      7718      7719      7717      7715      7718      7720
      7717      7715      7718      7721      7718      7721      7724      7725
      7718      7721      7724      7726      7718      7721      7724      7727
      7719      7718      7721      7722      7719      7718      7721      7723
      7719      7718      7721      7724      7720      7718      7721      7722
      7720      7718      7721      7723      7720      7718      7721      7724
      7721      7724      7727      7728      7721      7724      7727      7729
      7721      7724      7727      7730      7722      7721      7724      7725
      7722      7721      7724      7726      7722      7721      7724      7727
      7723      7721      7724      7725      7723      7721      7724      7726
      7723      7721      7724      7727      7724      7727      7730      7731
      7724      7727      7730      7732      7724      7727      7730      7733
      7725      7724      7727      7728      7725      7724      7727      7729
      7725      7724      7727      7730      7726      7724      7727      7728
      7726      7724      7727      7729      7726      7724      7727      7730
      7727      7730      7733      7734      7727      7730      7733      7735
      7727      7730      7733      7736      7728      7727      7730      7731
      7728      7727      7730      7732      7728      7727      7730      7733
      7729      7727      7730      7731      7729      7727      7730      7732
      7729      7727      7730      7733      7730      7733      7736      7737
      7730      7733      7736      7738      7730      7733      7736      7739
      7731      7730      7733      7734      7731      7730      7733      7735
      7731      7730      7733      7736      7732      7730      7733      7734
      7732      7730      7733      7735      7732      7730      7733      7736
      7733      7736      7739      7740      7733      7736      7739      7741
      7733      7736      7739      7742      7734      7733      7736      7737
      7734      7733      7736      7738      7734      7733      7736      7739
      7735      7733      7736      7737      7735      7733      7736      7738
      7735      7733      7736      7739      7736      7739      7742      7743
      7736      7739      7742      7744      7736      7739      7742      7745
      7737      7736      7739      7740      7737      7736      7739      7741
      7737      7736      7739      7742      7738      7736      7739      7740
      7738      7736      7739      7741      7738      7736      7739      7742
      7739      7742      7745      7746      7739      7742      7745      7747
      7739      7742      7745      7748      7740      7739      7742      7743
      7740      7739      7742      7744      7740      7739      7742      7745
      7741      7739      7742      7743      7741      7739      7742      7744
      7741      7739      7742      7745      7742      7745      7748      7749
      7742      7745      7748      7750      7742      7745      7748      7751
      7743      7742      7745      7746      7743      7742      7745      7747
      7743      7742      7745      7748      7744      7742      7745      7746
      7744      7742      7745      7747      7744      7742      7745      7748
      7745      7748      7751      7752      7745      7748      7751      7753
      7745      7748      7751      7754      7746      7745      7748      7749
      7746      7745      7748      7750      7746      7745      7748      7751
      7747      7745      7748      7749      7747      7745      7748      7750
      7747      7745      7748      7751      7748      7751      7754      7755
      7748      7751      7754      7756      7748      7751      7754      7757
      7749      7748      7751      7752      7749      7748      7751      7753
      7749      7748      7751      7754      7750      7748      7751      7752
      7750      7748      7751      7753      7750      7748      7751      7754
      7752      7751      7754      7755      7752      7751      7754      7756
      7752      7751      7754      7757      7753      7751      7754      7755
      7753      7751      7754      7756      7753      7751      7754      7757
      7758      7761      7764      7765      7758      7761      7764      7766
      7758      7761      7764      7767      7759      7758      7761      7762
      7759      7758      7761      7763      7759      7758      7761      7764
      7760      7758      7761      7762      7760      7758      7761      7763
      7760      7758      7761      7764      7761      7764      7767      7768
      7761      7764      7767      7769      7761      7764      7767      7770
      7762      7761      7764      7765      7762      7761      7764      7766
      7762      7761      7764      7767      7763      7761      7764      7765
      7763      7761      7764      7766      7763      7761      7764      7767
      7764      7767      7770      7771      7764      7767      7770      7772
      7764      7767      7770      7773      7765      7764      7767      7768
      7765      7764      7767      7769      7765      7764      7767      7770
      7766      7764      7767      7768      7766      7764      7767      7769
      7766      7764      7767      7770      7767      7770      7773      7774
      7767      7770      7773      7775      7767      7770      7773      7776
      7768      7767      7770      7771      7768      7767      7770      7772
      7768      7767      7770      7773      7769      7767      7770      7771
      7769      7767      7770      7772      7769      7767      7770      7773
      7770      7773      7776      7777      7770      7773      7776      7778
      7770      7773      7776      7779      7771      7770      7773      7774
      7771      7770      7773      7775      7771      7770      7773      7776
      7772      7770      7773      7774      7772      7770      7773      7775
      7772      7770      7773      7776      7773      7776      7779      7780
      7773      7776      7779      7781      7773      7776      7779      7782
      7774      7773      7776      7777      7774      7773      7776      7778
      7774      7773      7776      7779      7775      7773      7776      7777
      7775      7773      7776      7778      7775      7773      7776      7779
      7776      7779      7782      7783      7776      7779      7782      7784
      7776      7779      7782      7785      7777      7776      7779      7780
      7777      7776      7779      7781      7777      7776      7779      7782
      7778      7776      7779      7780      7778      7776      7779      7781
      7778      7776      7779      7782      7779      7782      7785      7786
      7779      7782      7785      7787      7779      7782      7785      7788
      7780      7779      7782      7783      7780      7779      7782      7784
      7780      7779      7782      7785      7781      7779      7782      7783
      7781      7779      7782      7784      7781      7779      7782      7785
      7782      7785      7788      7789      7782      7785      7788      7790
      7782      7785      7788      7791      7783      7782      7785      7786
      7783      7782      7785      7787      7783      7782      7785      7788
      7784      7782      7785      7786      7784      7782      7785      7787
      7784      7782      7785      7788      7785      7788      7791      7792
      7785      7788      7791      7793      7785      7788      7791      7794
      7786      7785      7788      7789      7786      7785      7788      7790
      7786      7785      7788      7791      7787      7785      7788      7789
      7787      7785      7788      7790      7787      7785      7788      7791
      7788      7791      7794      7795      7788      7791      7794      7796
      7788      7791      7794      7797      7789      7788      7791      7792
      7789      7788      7791      7793      7789      7788      7791      7794
      7790      7788      7791      7792      7790      7788      7791      7793
      7790      7788      7791      7794      7791      7794      7797      7798
      7791      7794      7797      7799      7791      7794      7797      7800
      7792      7791      7794      7795      7792      7791      7794      7796
      7792      7791      7794      7797      7793      7791      7794      7795
      7793      7791      7794      7796      7793      7791      7794      7797
      7795      7794      7797      7798      7795      7794      7797      7799
      7795      7794      7797      7800      7796      7794      7797      7798
      7796      7794      7797      7799      7796      7794      7797      7800
      7801      7814      7817      7818      7801      7814      7817      7819
      7801      7814      7817      7824      7802      7801      7806      7807
      7802      7801      7806      7808      7802      7801      7806      7809
      7802      7801      7810      7811      7802      7801      7810      7812
      7802      7801      7810      7813      7802      7801      7814      7815
      7802      7801      7814      7816      7802      7801      7814      7817
      7803      7802      7801      7806      7803      7802      7801      7810
      7803      7802      7801      7814      7804      7802      7801      7806
      7804      7802      7801      7810      7804      7802      7801      7814
      7805      7802      7801      7806      7805      7802      7801      7810
      7805      7802      7801      7814      7806      7801      7810      7811
      7806      7801      7810      7812      7806      7801      7810      7813
      7806      7801      7814      7815      7806      7801      7814      7816
      7806      7801      7814      7817      7807      7806      7801      7810
      7807      7806      7801      7814      7808      7806      7801      7810
      7808      7806      7801      7814      7809      7806      7801      7810
      7809      7806      7801      7814      7810      7801      7814      7815
      7810      7801      7814      7816      7810      7801      7814      7817
      7811      7810      7801      7814      7812      7810      7801      7814
      7813      7810      7801      7814      7814      7817      7824      7820
      7815      7814      7817      7818      7815      7814      7817      7819
      7815      7814      7817      7824      7816      7814      7817      7818
      7816      7814      7817      7819      7816      7814      7817      7824
      7817      7824      7820      7821      7817      7824      7820      7822
      7817      7824      7820      7823      7818      7817      7824      7820
      7819      7817      7824      7820      7820      7823      7825      7826
      7820      7823      7825      7827      7820      7823      7825      7828
      7821      7820      7823      7825      7822      7820      7823      7825
      7823      7825      7828      7829      7823      7825      7828      7830
      7823      7825      7828      7836      7824      7820      7823      7825
      7825      7828      7830      7831      7825      7828      7836      7837
      7825      7828      7836      7838      7825      7828      7836      7839
      7826      7825      7828      7829      7826      7825      7828      7830
      7826      7825      7828      7836      7827      7825      7828      7829
      7827      7825      7828      7830      7827      7825      7828      7836
      7828      7830      7831      7832      7828      7830      7831      7833
      7828      7836      7839      7840      7829      7828      7830      7831
      7829      7828      7836      7837      7829      7828      7836      7838
      7829      7828      7836      7839      7830      7828      7836      7837
      7830      7828      7836      7838      7830      7828      7836      7839
      7830      7831      7833      7834      7830      7831      7833      7835
      7830      7831      7833      7845      7831      7830      7828      7836
      7831      7833      7845      7846      7831      7833      7845      7847
      7831      7833      7845      7848      7832      7831      7833      7834
      7832      7831      7833      7835      7832      7831      7833      7845
      7833      7845      7848      7849      7833      7845      7848      7850
      7833      7845      7848      7851      7834      7833      7845      7846
      7834      7833      7845      7847      7834      7833      7845      7848
      7835      7833      7845      7846      7835      7833      7845      7847
      7835      7833      7845      7848      7836      7839      7840      7841
      7836      7839      7840      7842      7837      7836      7839      7840
      7838      7836      7839      7840      7839      7840      7842      7843
      7839      7840      7842      7844      7839      7840      7842      7888
      7840      7842      7888      7889      7840      7842      7888      7890
      7840      7842      7888      7891      7841      7840      7842      7843
      7841      7840      7842      7844      7841      7840      7842      7888
      7842      7888      7891      7892      7842      7888      7891      7893
      7842      7888      7891      7894      7843      7842      7888      7889
      7843      7842      7888      7890      7843      7842      7888      7891
      7844      7842      7888      7889      7844      7842      7888      7890
      7844      7842      7888      7891      7845      7848      7851      7852
      7845      7848      7851      7853      7845      7848      7851      7854
      7846      7845      7848      7849      7846      7845      7848      7850
      7846      7845      7848      7851      7847      7845      7848      7849
      7847      7845      7848      7850      7847      7845      7848      7851
      7848      7851      7854      7855      7848      7851      7854      7856
      7848      7851      7854      7857      7849      7848      7851      7852
      7849      7848      7851      7853      7849      7848      7851      7854
      7850      7848      7851      7852      7850      7848      7851      7853
      7850      7848      7851      7854      7851      7854      7857      7858
      7851      7854      7857      7859      7851      7854      7857      7860
      7852      7851      7854      7855      7852      7851      7854      7856
      7852      7851      7854      7857      7853      7851      7854      7855
      7853      7851      7854      7856      7853      7851      7854      7857
      7854      7857      7860      7861      7854      7857      7860      7862
      7854      7857      7860      7863      7855      7854      7857      7858
      7855      7854      7857      7859      7855      7854      7857      7860
      7856      7854      7857      7858      7856      7854      7857      7859
      7856      7854      7857      7860      7857      7860      7863      7864
      7857      7860      7863      7865      7857      7860      7863      7866
      7858      7857      7860      7861      7858      7857      7860      7862
      7858      7857      7860      7863      7859      7857      7860      7861
      7859      7857      7860      7862      7859      7857      7860      7863
      7860      7863      7866      7867      7860      7863      7866      7868
      7860      7863      7866      7869      7861      7860      7863      7864
      7861      7860      7863      7865      7861      7860      7863      7866
      7862      7860      7863      7864      7862      7860      7863      7865
      7862      7860      7863      7866      7863      7866      7869      7870
      7863      7866      7869      7871      7863      7866      7869      7872
      7864      7863      7866      7867      7864      7863      7866      7868
      7864      7863      7866      7869      7865      7863      7866      7867
      7865      7863      7866      7868      7865      7863      7866      7869
      7866      7869      7872      7873      7866      7869      7872      7874
      7866      7869      7872      7875      7867      7866      7869      7870
      7867      7866      7869      7871      7867      7866      7869      7872
      7868      7866      7869      7870      7868      7866      7869      7871
      7868      7866      7869      7872      7869      7872      7875      7876
      7869      7872      7875      7877      7869      7872      7875      7878
      7870      7869      7872      7873      7870      7869      7872      7874
      7870      7869      7872      7875      7871      7869      7872      7873
      7871      7869      7872      7874      7871      7869      7872      7875
      7872      7875      7878      7879      7872      7875      7878      7880
      7872      7875      7878      7881      7873      7872      7875      7876
      7873      7872      7875      7877      7873      7872      7875      7878
      7874      7872      7875      7876      7874      7872      7875      7877
      7874      7872      7875      7878      7875      7878      7881      7882
      7875      7878      7881      7883      7875      7878      7881      7884
      7876      7875      7878      7879      7876      7875      7878      7880
      7876      7875      7878      7881      7877      7875      7878      7879
      7877      7875      7878      7880      7877      7875      7878      7881
      7878      7881      7884      7885      7878      7881      7884      7886
      7878      7881      7884      7887      7879      7878      7881      7882
      7879      7878      7881      7883      7879      7878      7881      7884
      7880      7878      7881      7882      7880      7878      7881      7883
      7880      7878      7881      7884      7882      7881      7884      7885
      7882      7881      7884      7886      7882      7881      7884      7887
      7883      7881      7884      7885      7883      7881      7884      7886
      7883      7881      7884      7887      7888      7891      7894      7895
      7888      7891      7894      7896      7888      7891      7894      7897
      7889      7888      7891      7892      7889      7888      7891      7893
      7889      7888      7891      7894      7890      7888      7891      7892
      7890      7888      7891      7893      7890      7888      7891      7894
      7891      7894      7897      7898      7891      7894      7897      7899
      7891      7894      7897      7900      7892      7891      7894      7895
      7892      7891      7894      7896      7892      7891      7894      7897
      7893      7891      7894      7895      7893      7891      7894      7896
      7893      7891      7894      7897      7894      7897      7900      7901
      7894      7897      7900      7902      7894      7897      7900      7903
      7895      7894      7897      7898      7895      7894      7897      7899
      7895      7894      7897      7900      7896      7894      7897      7898
      7896      7894      7897      7899      7896      7894      7897      7900
      7897      7900      7903      7904      7897      7900      7903      7905
      7897      7900      7903      7906      7898      7897      7900      7901
      7898      7897      7900      7902      7898      7897      7900      7903
      7899      7897      7900      7901      7899      7897      7900      7902
      7899      7897      7900      7903      7900      7903      7906      7907
      7900      7903      7906      7908      7900      7903      7906      7909
      7901      7900      7903      7904      7901      7900      7903      7905
      7901      7900      7903      7906      7902      7900      7903      7904
      7902      7900      7903      7905      7902      7900      7903      7906
      7903      7906      7909      7910      7903      7906      7909      7911
      7903      7906      7909      7912      7904      7903      7906      7907
      7904      7903      7906      7908      7904      7903      7906      7909
      7905      7903      7906      7907      7905      7903      7906      7908
      7905      7903      7906      7909      7906      7909      7912      7913
      7906      7909      7912      7914      7906      7909      7912      7915
      7907      7906      7909      7910      7907      7906      7909      7911
      7907      7906      7909      7912      7908      7906      7909      7910
      7908      7906      7909      7911      7908      7906      7909      7912
      7909      7912      7915      7916      7909      7912      7915      7917
      7909      7912      7915      7918      7910      7909      7912      7913
      7910      7909      7912      7914      7910      7909      7912      7915
      7911      7909      7912      7913      7911      7909      7912      7914
      7911      7909      7912      7915      7912      7915      7918      7919
      7912      7915      7918      7920      7912      7915      7918      7921
      7913      7912      7915      7916      7913      7912      7915      7917
      7913      7912      7915      7918      7914      7912      7915      7916
      7914      7912      7915      7917      7914      7912      7915      7918
      7915      7918      7921      7922      7915      7918      7921      7923
      7915      7918      7921      7924      7916      7915      7918      7919
      7916      7915      7918      7920      7916      7915      7918      7921
      7917      7915      7918      7919      7917      7915      7918      7920
      7917      7915      7918      7921      7918      7921      7924      7925
      7918      7921      7924      7926      7918      7921      7924      7927
      7919      7918      7921      7922      7919      7918      7921      7923
      7919      7918      7921      7924      7920      7918      7921      7922
      7920      7918      7921      7923      7920      7918      7921      7924
      7921      7924      7927      7928      7921      7924      7927      7929
      7921      7924      7927      7930      7922      7921      7924      7925
      7922      7921      7924      7926      7922      7921      7924      7927
      7923      7921      7924      7925      7923      7921      7924      7926
      7923      7921      7924      7927      7925      7924      7927      7928
      7925      7924      7927      7929      7925      7924      7927      7930
      7926      7924      7927      7928      7926      7924      7927      7929
      7926      7924      7927      7930      7931      7944      7947      7948
      7931      7944      7947      7949      7931      7944      7947      7954
      7932      7931      7936      7937      7932      7931      7936      7938
      7932      7931      7936      7939      7932      7931      7940      7941
      7932      7931      7940      7942      7932      7931      7940      7943
      7932      7931      7944      7945      7932      7931      7944      7946
      7932      7931      7944      7947      7933      7932      7931      7936
      7933      7932      7931      7940      7933      7932      7931      7944
      7934      7932      7931      7936      7934      7932      7931      7940
      7934      7932      7931      7944      7935      7932      7931      7936
      7935      7932      7931      7940      7935      7932      7931      7944
      7936      7931      7940      7941      7936      7931      7940      7942
      7936      7931      7940      7943      7936      7931      7944      7945
      7936      7931      7944      7946      7936      7931      7944      7947
      7937      7936      7931      7940      7937      7936      7931      7944
      7938      7936      7931      7940      7938      7936      7931      7944
      7939      7936      7931      7940      7939      7936      7931      7944
      7940      7931      7944      7945      7940      7931      7944      7946
      7940      7931      7944      7947      7941      7940      7931      7944
      7942      7940      7931      7944      7943      7940      7931      7944
      7944      7947      7954      7950      7945      7944      7947      7948
      7945      7944      7947      7949      7945      7944      7947      7954
      7946      7944      7947      7948      7946      7944      7947      7949
      7946      7944      7947      7954      7947      7954      7950      7951
      7947      7954      7950      7952      7947      7954      7950      7953
      7948      7947      7954      7950      7949      7947      7954      7950
      7950      7953      7955      7956      7950      7953      7955      7957
      7950      7953      7955      7958      7951      7950      7953      7955
      7952      7950      7953      7955      7953      7955      7958      7959
      7953      7955      7958      7960      7953      7955      7958      7966
      7954      7950      7953      7955      7955      7958      7960      7961
      7955      7958      7966      7967      7955      7958      7966      7968
      7955      7958      7966      7969      7956      7955      7958      7959
      7956      7955      7958      7960      7956      7955      7958      7966
      7957      7955      7958      7959      7957      7955      7958      7960
      7957      7955      7958      7966      7958      7960      7961      7962
      7958      7960      7961      7963      7958      7966      7969      7970
      7959      7958      7960      7961      7959      7958      7966      7967
      7959      7958      7966      7968      7959      7958      7966      7969
      7960      7958      7966      7967      7960      7958      7966      7968
      7960      7958      7966      7969      7960      7961      7963      7964
      7960      7961      7963      7965      7960      7961      7963      7975
      7961      7960      7958      7966      7961      7963      7975      7976
      7961      7963      7975      7977      7961      7963      7975      7978
      7962      7961      7963      7964      7962      7961      7963      7965
      7962      7961      7963      7975      7963      7975      7978      7979
      7963      7975      7978      7980      7963      7975      7978      7981
      7964      7963      7975      7976      7964      7963      7975      7977
      7964      7963      7975      7978      7965      7963      7975      7976
      7965      7963      7975      7977      7965      7963      7975      7978
      7966      7969      7970      7971      7966      7969      7970      7972
      7967      7966      7969      7970      7968      7966      7969      7970
      7969      7970      7972      7973      7969      7970      7972      7974
      7969      7970      7972      8018      7970      7972      8018      8019
      7970      7972      8018      8020      7970      7972      8018      8021
      7971      7970      7972      7973      7971      7970      7972      7974
      7971      7970      7972      8018      7972      8018      8021      8022
      7972      8018      8021      8023      7972      8018      8021      8024
      7973      7972      8018      8019      7973      7972      8018      8020
      7973      7972      8018      8021      7974      7972      8018      8019
      7974      7972      8018      8020      7974      7972      8018      8021
      7975      7978      7981      7982      7975      7978      7981      7983
      7975      7978      7981      7984      7976      7975      7978      7979
      7976      7975      7978      7980      7976      7975      7978      7981
      7977      7975      7978      7979      7977      7975      7978      7980
      7977      7975      7978      7981      7978      7981      7984      7985
      7978      7981      7984      7986      7978      7981      7984      7987
      7979      7978      7981      7982      7979      7978      7981      7983
      7979      7978      7981      7984      7980      7978      7981      7982
      7980      7978      7981      7983      7980      7978      7981      7984
      7981      7984      7987      7988      7981      7984      7987      7989
      7981      7984      7987      7990      7982      7981      7984      7985
      7982      7981      7984      7986      7982      7981      7984      7987
      7983      7981      7984      7985      7983      7981      7984      7986
      7983      7981      7984      7987      7984      7987      7990      7991
      7984      7987      7990      7992      7984      7987      7990      7993
      7985      7984      7987      7988      7985      7984      7987      7989
      7985      7984      7987      7990      7986      7984      7987      7988
      7986      7984      7987      7989      7986      7984      7987      7990
      7987      7990      7993      7994      7987      7990      7993      7995
      7987      7990      7993      7996      7988      7987      7990      7991
      7988      7987      7990      7992      7988      7987      7990      7993
      7989      7987      7990      7991      7989      7987      7990      7992
      7989      7987      7990      7993      7990      7993      7996      7997
      7990      7993      7996      7998      7990      7993      7996      7999
      7991      7990      7993      7994      7991      7990      7993      7995
      7991      7990      7993      7996      7992      7990      7993      7994
      7992      7990      7993      7995      7992      7990      7993      7996
      7993      7996      7999      8000      7993      7996      7999      8001
      7993      7996      7999      8002      7994      7993      7996      7997
      7994      7993      7996      7998      7994      7993      7996      7999
      7995      7993      7996      7997      7995      7993      7996      7998
      7995      7993      7996      7999      7996      7999      8002      8003
      7996      7999      8002      8004      7996      7999      8002      8005
      7997      7996      7999      8000      7997      7996      7999      8001
      7997      7996      7999      8002      7998      7996      7999      8000
      7998      7996      7999      8001      7998      7996      7999      8002
      7999      8002      8005      8006      7999      8002      8005      8007
      7999      8002      8005      8008      8000      7999      8002      8003
      8000      7999      8002      8004      8000      7999      8002      8005
      8001      7999      8002      8003      8001      7999      8002      8004
      8001      7999      8002      8005      8002      8005      8008      8009
      8002      8005      8008      8010      8002      8005      8008      8011
      8003      8002      8005      8006      8003      8002      8005      8007
      8003      8002      8005      8008      8004      8002      8005      8006
      8004      8002      8005      8007      8004      8002      8005      8008
      8005      8008      8011      8012      8005      8008      8011      8013
      8005      8008      8011      8014      8006      8005      8008      8009
      8006      8005      8008      8010      8006      8005      8008      8011
      8007      8005      8008      8009      8007      8005      8008      8010
      8007      8005      8008      8011      8008      8011      8014      8015
      8008      8011      8014      8016      8008      8011      8014      8017
      8009      8008      8011      8012      8009      8008      8011      8013
      8009      8008      8011      8014      8010      8008      8011      8012
      8010      8008      8011      8013      8010      8008      8011      8014
      8012      8011      8014      8015      8012      8011      8014      8016
      8012      8011      8014      8017      8013      8011      8014      8015
      8013      8011      8014      8016      8013      8011      8014      8017
      8018      8021      8024      8025      8018      8021      8024      8026
      8018      8021      8024      8027      8019      8018      8021      8022
      8019      8018      8021      8023      8019      8018      8021      8024
      8020      8018      8021      8022      8020      8018      8021      8023
      8020      8018      8021      8024      8021      8024      8027      8028
      8021      8024      8027      8029      8021      8024      8027      8030
      8022      8021      8024      8025      8022      8021      8024      8026
      8022      8021      8024      8027      8023      8021      8024      8025
      8023      8021      8024      8026      8023      8021      8024      8027
      8024      8027      8030      8031      8024      8027      8030      8032
      8024      8027      8030      8033      8025      8024      8027      8028
      8025      8024      8027      8029      8025      8024      8027      8030
      8026      8024      8027      8028      8026      8024      8027      8029
      8026      8024      8027      8030      8027      8030      8033      8034
      8027      8030      8033      8035      8027      8030      8033      8036
      8028      8027      8030      8031      8028      8027      8030      8032
      8028      8027      8030      8033      8029      8027      8030      8031
      8029      8027      8030      8032      8029      8027      8030      8033
      8030      8033      8036      8037      8030      8033      8036      8038
      8030      8033      8036      8039      8031      8030      8033      8034
      8031      8030      8033      8035      8031      8030      8033      8036
      8032      8030      8033      8034      8032      8030      8033      8035
      8032      8030      8033      8036      8033      8036      8039      8040
      8033      8036      8039      8041      8033      8036      8039      8042
      8034      8033      8036      8037      8034      8033      8036      8038
      8034      8033      8036      8039      8035      8033      8036      8037
      8035      8033      8036      8038      8035      8033      8036      8039
      8036      8039      8042      8043      8036      8039      8042      8044
      8036      8039      8042      8045      8037      8036      8039      8040
      8037      8036      8039      8041      8037      8036      8039      8042
      8038      8036      8039      8040      8038      8036      8039      8041
      8038      8036      8039      8042      8039      8042      8045      8046
      8039      8042      8045      8047      8039      8042      8045      8048
      8040      8039      8042      8043      8040      8039      8042      8044
      8040      8039      8042      8045      8041      8039      8042      8043
      8041      8039      8042      8044      8041      8039      8042      8045
      8042      8045      8048      8049      8042      8045      8048      8050
      8042      8045      8048      8051      8043      8042      8045      8046
      8043      8042      8045      8047      8043      8042      8045      8048
      8044      8042      8045      8046      8044      8042      8045      8047
      8044      8042      8045      8048      8045      8048      8051      8052
      8045      8048      8051      8053      8045      8048      8051      8054
      8046      8045      8048      8049      8046      8045      8048      8050
      8046      8045      8048      8051      8047      8045      8048      8049
      8047      8045      8048      8050      8047      8045      8048      8051
      8048      8051      8054      8055      8048      8051      8054      8056
      8048      8051      8054      8057      8049      8048      8051      8052
      8049      8048      8051      8053      8049      8048      8051      8054
      8050      8048      8051      8052      8050      8048      8051      8053
      8050      8048      8051      8054      8051      8054      8057      8058
      8051      8054      8057      8059      8051      8054      8057      8060
      8052      8051      8054      8055      8052      8051      8054      8056
      8052      8051      8054      8057      8053      8051      8054      8055
      8053      8051      8054      8056      8053      8051      8054      8057
      8055      8054      8057      8058      8055      8054      8057      8059
      8055      8054      8057      8060      8056      8054      8057      8058
      8056      8054      8057      8059      8056      8054      8057      8060
      8061      8074      8077      8078      8061      8074      8077      8079
      8061      8074      8077      8084      8062      8061      8066      8067
      8062      8061      8066      8068      8062      8061      8066      8069
      8062      8061      8070      8071      8062      8061      8070      8072
      8062      8061      8070      8073      8062      8061      8074      8075
      8062      8061      8074      8076      8062      8061      8074      8077
      8063      8062      8061      8066      8063      8062      8061      8070
      8063      8062      8061      8074      8064      8062      8061      8066
      8064      8062      8061      8070      8064      8062      8061      8074
      8065      8062      8061      8066      8065      8062      8061      8070
      8065      8062      8061      8074      8066      8061      8070      8071
      8066      8061      8070      8072      8066      8061      8070      8073
      8066      8061      8074      8075      8066      8061      8074      8076
      8066      8061      8074      8077      8067      8066      8061      8070
      8067      8066      8061      8074      8068      8066      8061      8070
      8068      8066      8061      8074      8069      8066      8061      8070
      8069      8066      8061      8074      8070      8061      8074      8075
      8070      8061      8074      8076      8070      8061      8074      8077
      8071      8070      8061      8074      8072      8070      8061      8074
      8073      8070      8061      8074      8074      8077      8084      8080
      8075      8074      8077      8078      8075      8074      8077      8079
      8075      8074      8077      8084      8076      8074      8077      8078
      8076      8074      8077      8079      8076      8074      8077      8084
      8077      8084      8080      8081      8077      8084      8080      8082
      8077      8084      8080      8083      8078      8077      8084      8080
      8079      8077      8084      8080      8080      8083      8085      8086
      8080      8083      8085      8087      8080      8083      8085      8088
      8081      8080      8083      8085      8082      8080      8083      8085
      8083      8085      8088      8089      8083      8085      8088      8090
      8083      8085      8088      8096      8084      8080      8083      8085
      8085      8088      8090      8091      8085      8088      8096      8097
      8085      8088      8096      8098      8085      8088      8096      8099
      8086      8085      8088      8089      8086      8085      8088      8090
      8086      8085      8088      8096      8087      8085      8088      8089
      8087      8085      8088      8090      8087      8085      8088      8096
      8088      8090      8091      8092      8088      8090      8091      8093
      8088      8096      8099      8100      8089      8088      8090      8091
      8089      8088      8096      8097      8089      8088      8096      8098
      8089      8088      8096      8099      8090      8088      8096      8097
      8090      8088      8096      8098      8090      8088      8096      8099
      8090      8091      8093      8094      8090      8091      8093      8095
      8090      8091      8093      8105      8091      8090      8088      8096
      8091      8093      8105      8106      8091      8093      8105      8107
      8091      8093      8105      8108      8092      8091      8093      8094
      8092      8091      8093      8095      8092      8091      8093      8105
      8093      8105      8108      8109      8093      8105      8108      8110
      8093      8105      8108      8111      8094      8093      8105      8106
      8094      8093      8105      8107      8094      8093      8105      8108
      8095      8093      8105      8106      8095      8093      8105      8107
      8095      8093      8105      8108      8096      8099      8100      8101
      8096      8099      8100      8102      8097      8096      8099      8100
      8098      8096      8099      8100      8099      8100      8102      8103
      8099      8100      8102      8104      8099      8100      8102      8148
      8100      8102      8148      8149      8100      8102      8148      8150
      8100      8102      8148      8151      8101      8100      8102      8103
      8101      8100      8102      8104      8101      8100      8102      8148
      8102      8148      8151      8152      8102      8148      8151      8153
      8102      8148      8151      8154      8103      8102      8148      8149
      8103      8102      8148      8150      8103      8102      8148      8151
      8104      8102      8148      8149      8104      8102      8148      8150
      8104      8102      8148      8151      8105      8108      8111      8112
      8105      8108      8111      8113      8105      8108      8111      8114
      8106      8105      8108      8109      8106      8105      8108      8110
      8106      8105      8108      8111      8107      8105      8108      8109
      8107      8105      8108      8110      8107      8105      8108      8111
      8108      8111      8114      8115      8108      8111      8114      8116
      8108      8111      8114      8117      8109      8108      8111      8112
      8109      8108      8111      8113      8109      8108      8111      8114
      8110      8108      8111      8112      8110      8108      8111      8113
      8110      8108      8111      8114      8111      8114      8117      8118
      8111      8114      8117      8119      8111      8114      8117      8120
      8112      8111      8114      8115      8112      8111      8114      8116
      8112      8111      8114      8117      8113      8111      8114      8115
      8113      8111      8114      8116      8113      8111      8114      8117
      8114      8117      8120      8121      8114      8117      8120      8122
      8114      8117      8120      8123      8115      8114      8117      8118
      8115      8114      8117      8119      8115      8114      8117      8120
      8116      8114      8117      8118      8116      8114      8117      8119
      8116      8114      8117      8120      8117      8120      8123      8124
      8117      8120      8123      8125      8117      8120      8123      8126
      8118      8117      8120      8121      8118      8117      8120      8122
      8118      8117      8120      8123      8119      8117      8120      8121
      8119      8117      8120      8122      8119      8117      8120      8123
      8120      8123      8126      8127      8120      8123      8126      8128
      8120      8123      8126      8129      8121      8120      8123      8124
      8121      8120      8123      8125      8121      8120      8123      8126
      8122      8120      8123      8124      8122      8120      8123      8125
      8122      8120      8123      8126      8123      8126      8129      8130
      8123      8126      8129      8131      8123      8126      8129      8132
      8124      8123      8126      8127      8124      8123      8126      8128
      8124      8123      8126      8129      8125      8123      8126      8127
      8125      8123      8126      8128      8125      8123      8126      8129
      8126      8129      8132      8133      8126      8129      8132      8134
      8126      8129      8132      8135      8127      8126      8129      8130
      8127      8126      8129      8131      8127      8126      8129      8132
      8128      8126      8129      8130      8128      8126      8129      8131
      8128      8126      8129      8132      8129      8132      8135      8136
      8129      8132      8135      8137      8129      8132      8135      8138
      8130      8129      8132      8133      8130      8129      8132      8134
      8130      8129      8132      8135      8131      8129      8132      8133
      8131      8129      8132      8134      8131      8129      8132      8135
      8132      8135      8138      8139      8132      8135      8138      8140
      8132      8135      8138      8141      8133      8132      8135      8136
      8133      8132      8135      8137      8133      8132      8135      8138
      8134      8132      8135      8136      8134      8132      8135      8137
      8134      8132      8135      8138      8135      8138      8141      8142
      8135      8138      8141      8143      8135      8138      8141      8144
      8136      8135      8138      8139      8136      8135      8138      8140
      8136      8135      8138      8141      8137      8135      8138      8139
      8137      8135      8138      8140      8137      8135      8138      8141
      8138      8141      8144      8145      8138      8141      8144      8146
      8138      8141      8144      8147      8139      8138      8141      8142
      8139      8138      8141      8143      8139      8138      8141      8144
      8140      8138      8141      8142      8140      8138      8141      8143
      8140      8138      8141      8144      8142      8141      8144      8145
      8142      8141      8144      8146      8142      8141      8144      8147
      8143      8141      8144      8145      8143      8141      8144      8146
      8143      8141      8144      8147      8148      8151      8154      8155
      8148      8151      8154      8156      8148      8151      8154      8157
      8149      8148      8151      8152      8149      8148      8151      8153
      8149      8148      8151      8154      8150      8148      8151      8152
      8150      8148      8151      8153      8150      8148      8151      8154
      8151      8154      8157      8158      8151      8154      8157      8159
      8151      8154      8157      8160      8152      8151      8154      8155
      8152      8151      8154      8156      8152      8151      8154      8157
      8153      8151      8154      8155      8153      8151      8154      8156
      8153      8151      8154      8157      8154      8157      8160      8161
      8154      8157      8160      8162      8154      8157      8160      8163
      8155      8154      8157      8158      8155      8154      8157      8159
      8155      8154      8157      8160      8156      8154      8157      8158
      8156      8154      8157      8159      8156      8154      8157      8160
      8157      8160      8163      8164      8157      8160      8163      8165
      8157      8160      8163      8166      8158      8157      8160      8161
      8158      8157      8160      8162      8158      8157      8160      8163
      8159      8157      8160      8161      8159      8157      8160      8162
      8159      8157      8160      8163      8160      8163      8166      8167
      8160      8163      8166      8168      8160      8163      8166      8169
      8161      8160      8163      8164      8161      8160      8163      8165
      8161      8160      8163      8166      8162      8160      8163      8164
      8162      8160      8163      8165      8162      8160      8163      8166
      8163      8166      8169      8170      8163      8166      8169      8171
      8163      8166      8169      8172      8164      8163      8166      8167
      8164      8163      8166      8168      8164      8163      8166      8169
      8165      8163      8166      8167      8165      8163      8166      8168
      8165      8163      8166      8169      8166      8169      8172      8173
      8166      8169      8172      8174      8166      8169      8172      8175
      8167      8166      8169      8170      8167      8166      8169      8171
      8167      8166      8169      8172      8168      8166      8169      8170
      8168      8166      8169      8171      8168      8166      8169      8172
      8169      8172      8175      8176      8169      8172      8175      8177
      8169      8172      8175      8178      8170      8169      8172      8173
      8170      8169      8172      8174      8170      8169      8172      8175
      8171      8169      8172      8173      8171      8169      8172      8174
      8171      8169      8172      8175      8172      8175      8178      8179
      8172      8175      8178      8180      8172      8175      8178      8181
      8173      8172      8175      8176      8173      8172      8175      8177
      8173      8172      8175      8178      8174      8172      8175      8176
      8174      8172      8175      8177      8174      8172      8175      8178
      8175      8178      8181      8182      8175      8178      8181      8183
      8175      8178      8181      8184      8176      8175      8178      8179
      8176      8175      8178      8180      8176      8175      8178      8181
      8177      8175      8178      8179      8177      8175      8178      8180
      8177      8175      8178      8181      8178      8181      8184      8185
      8178      8181      8184      8186      8178      8181      8184      8187
      8179      8178      8181      8182      8179      8178      8181      8183
      8179      8178      8181      8184      8180      8178      8181      8182
      8180      8178      8181      8183      8180      8178      8181      8184
      8181      8184      8187      8188      8181      8184      8187      8189
      8181      8184      8187      8190      8182      8181      8184      8185
      8182      8181      8184      8186      8182      8181      8184      8187
      8183      8181      8184      8185      8183      8181      8184      8186
      8183      8181      8184      8187      8185      8184      8187      8188
      8185      8184      8187      8189      8185      8184      8187      8190
      8186      8184      8187      8188      8186      8184      8187      8189
      8186      8184      8187      8190      8191      8204      8207      8208
      8191      8204      8207      8209      8191      8204      8207      8214
      8192      8191      8196      8197      8192      8191      8196      8198
      8192      8191      8196      8199      8192      8191      8200      8201
      8192      8191      8200      8202      8192      8191      8200      8203
      8192      8191      8204      8205      8192      8191      8204      8206
      8192      8191      8204      8207      8193      8192      8191      8196
      8193      8192      8191      8200      8193      8192      8191      8204
      8194      8192      8191      8196      8194      8192      8191      8200
      8194      8192      8191      8204      8195      8192      8191      8196
      8195      8192      8191      8200      8195      8192      8191      8204
      8196      8191      8200      8201      8196      8191      8200      8202
      8196      8191      8200      8203      8196      8191      8204      8205
      8196      8191      8204      8206      8196      8191      8204      8207
      8197      8196      8191      8200      8197      8196      8191      8204
      8198      8196      8191      8200      8198      8196      8191      8204
      8199      8196      8191      8200      8199      8196      8191      8204
      8200      8191      8204      8205      8200      8191      8204      8206
      8200      8191      8204      8207      8201      8200      8191      8204
      8202      8200      8191      8204      8203      8200      8191      8204
      8204      8207      8214      8210      8205      8204      8207      8208
      8205      8204      8207      8209      8205      8204      8207      8214
      8206      8204      8207      8208      8206      8204      8207      8209
      8206      8204      8207      8214      8207      8214      8210      8211
      8207      8214      8210      8212      8207      8214      8210      8213
      8208      8207      8214      8210      8209      8207      8214      8210
      8210      8213      8215      8216      8210      8213      8215      8217
      8210      8213      8215      8218      8211      8210      8213      8215
      8212      8210      8213      8215      8213      8215      8218      8219
      8213      8215      8218      8220      8213      8215      8218      8226
      8214      8210      8213      8215      8215      8218      8220      8221
      8215      8218      8226      8227      8215      8218      8226      8228
      8215      8218      8226      8229      8216      8215      8218      8219
      8216      8215      8218      8220      8216      8215      8218      8226
      8217      8215      8218      8219      8217      8215      8218      8220
      8217      8215      8218      8226      8218      8220      8221      8222
      8218      8220      8221      8223      8218      8226      8229      8230
      8219      8218      8220      8221      8219      8218      8226      8227
      8219      8218      8226      8228      8219      8218      8226      8229
      8220      8218      8226      8227      8220      8218      8226      8228
      8220      8218      8226      8229      8220      8221      8223      8224
      8220      8221      8223      8225      8220      8221      8223      8235
      8221      8220      8218      8226      8221      8223      8235      8236
      8221      8223      8235      8237      8221      8223      8235      8238
      8222      8221      8223      8224      8222      8221      8223      8225
      8222      8221      8223      8235      8223      8235      8238      8239
      8223      8235      8238      8240      8223      8235      8238      8241
      8224      8223      8235      8236      8224      8223      8235      8237
      8224      8223      8235      8238      8225      8223      8235      8236
      8225      8223      8235      8237      8225      8223      8235      8238
      8226      8229      8230      8231      8226      8229      8230      8232
      8227      8226      8229      8230      8228      8226      8229      8230
      8229      8230      8232      8233      8229      8230      8232      8234
      8229      8230      8232      8278      8230      8232      8278      8279
      8230      8232      8278      8280      8230      8232      8278      8281
      8231      8230      8232      8233      8231      8230      8232      8234
      8231      8230      8232      8278      8232      8278      8281      8282
      8232      8278      8281      8283      8232      8278      8281      8284
      8233      8232      8278      8279      8233      8232      8278      8280
      8233      8232      8278      8281      8234      8232      8278      8279
      8234      8232      8278      8280      8234      8232      8278      8281
      8235      8238      8241      8242      8235      8238      8241      8243
      8235      8238      8241      8244      8236      8235      8238      8239
      8236      8235      8238      8240      8236      8235      8238      8241
      8237      8235      8238      8239      8237      8235      8238      8240
      8237      8235      8238      8241      8238      8241      8244      8245
      8238      8241      8244      8246      8238      8241      8244      8247
      8239      8238      8241      8242      8239      8238      8241      8243
      8239      8238      8241      8244      8240      8238      8241      8242
      8240      8238      8241      8243      8240      8238      8241      8244
      8241      8244      8247      8248      8241      8244      8247      8249
      8241      8244      8247      8250      8242      8241      8244      8245
      8242      8241      8244      8246      8242      8241      8244      8247
      8243      8241      8244      8245      8243      8241      8244      8246
      8243      8241      8244      8247      8244      8247      8250      8251
      8244      8247      8250      8252      8244      8247      8250      8253
      8245      8244      8247      8248      8245      8244      8247      8249
      8245      8244      8247      8250      8246      8244      8247      8248
      8246      8244      8247      8249      8246      8244      8247      8250
      8247      8250      8253      8254      8247      8250      8253      8255
      8247      8250      8253      8256      8248      8247      8250      8251
      8248      8247      8250      8252      8248      8247      8250      8253
      8249      8247      8250      8251      8249      8247      8250      8252
      8249      8247      8250      8253      8250      8253      8256      8257
      8250      8253      8256      8258      8250      8253      8256      8259
      8251      8250      8253      8254      8251      8250      8253      8255
      8251      8250      8253      8256      8252      8250      8253      8254
      8252      8250      8253      8255      8252      8250      8253      8256
      8253      8256      8259      8260      8253      8256      8259      8261
      8253      8256      8259      8262      8254      8253      8256      8257
      8254      8253      8256      8258      8254      8253      8256      8259
      8255      8253      8256      8257      8255      8253      8256      8258
      8255      8253      8256      8259      8256      8259      8262      8263
      8256      8259      8262      8264      8256      8259      8262      8265
      8257      8256      8259      8260      8257      8256      8259      8261
      8257      8256      8259      8262      8258      8256      8259      8260
      8258      8256      8259      8261      8258      8256      8259      8262
      8259      8262      8265      8266      8259      8262      8265      8267
      8259      8262      8265      8268      8260      8259      8262      8263
      8260      8259      8262      8264      8260      8259      8262      8265
      8261      8259      8262      8263      8261      8259      8262      8264
      8261      8259      8262      8265      8262      8265      8268      8269
      8262      8265      8268      8270      8262      8265      8268      8271
      8263      8262      8265      8266      8263      8262      8265      8267
      8263      8262      8265      8268      8264      8262      8265      8266
      8264      8262      8265      8267      8264      8262      8265      8268
      8265      8268      8271      8272      8265      8268      8271      8273
      8265      8268      8271      8274      8266      8265      8268      8269
      8266      8265      8268      8270      8266      8265      8268      8271
      8267      8265      8268      8269      8267      8265      8268      8270
      8267      8265      8268      8271      8268      8271      8274      8275
      8268      8271      8274      8276      8268      8271      8274      8277
      8269      8268      8271      8272      8269      8268      8271      8273
      8269      8268      8271      8274      8270      8268      8271      8272
      8270      8268      8271      8273      8270      8268      8271      8274
      8272      8271      8274      8275      8272      8271      8274      8276
      8272      8271      8274      8277      8273      8271      8274      8275
      8273      8271      8274      8276      8273      8271      8274      8277
      8278      8281      8284      8285      8278      8281      8284      8286
      8278      8281      8284      8287      8279      8278      8281      8282
      8279      8278      8281      8283      8279      8278      8281      8284
      8280      8278      8281      8282      8280      8278      8281      8283
      8280      8278      8281      8284      8281      8284      8287      8288
      8281      8284      8287      8289      8281      8284      8287      8290
      8282      8281      8284      8285      8282      8281      8284      8286
      8282      8281      8284      8287      8283      8281      8284      8285
      8283      8281      8284      8286      8283      8281      8284      8287
      8284      8287      8290      8291      8284      8287      8290      8292
      8284      8287      8290      8293      8285      8284      8287      8288
      8285      8284      8287      8289      8285      8284      8287      8290
      8286      8284      8287      8288      8286      8284      8287      8289
      8286      8284      8287      8290      8287      8290      8293      8294
      8287      8290      8293      8295      8287      8290      8293      8296
      8288      8287      8290      8291      8288      8287      8290      8292
      8288      8287      8290      8293      8289      8287      8290      8291
      8289      8287      8290      8292      8289      8287      8290      8293
      8290      8293      8296      8297      8290      8293      8296      8298
      8290      8293      8296      8299      8291      8290      8293      8294
      8291      8290      8293      8295      8291      8290      8293      8296
      8292      8290      8293      8294      8292      8290      8293      8295
      8292      8290      8293      8296      8293      8296      8299      8300
      8293      8296      8299      8301      8293      8296      8299      8302
      8294      8293      8296      8297      8294      8293      8296      8298
      8294      8293      8296      8299      8295      8293      8296      8297
      8295      8293      8296      8298      8295      8293      8296      8299
      8296      8299      8302      8303      8296      8299      8302      8304
      8296      8299      8302      8305      8297      8296      8299      8300
      8297      8296      8299      8301      8297      8296      8299      8302
      8298      8296      8299      8300      8298      8296      8299      8301
      8298      8296      8299      8302      8299      8302      8305      8306
      8299      8302      8305      8307      8299      8302      8305      8308
      8300      8299      8302      8303      8300      8299      8302      8304
      8300      8299      8302      8305      8301      8299      8302      8303
      8301      8299      8302      8304      8301      8299      8302      8305
      8302      8305      8308      8309      8302      8305      8308      8310
      8302      8305      8308      8311      8303      8302      8305      8306
      8303      8302      8305      8307      8303      8302      8305      8308
      8304      8302      8305      8306      8304      8302      8305      8307
      8304      8302      8305      8308      8305      8308      8311      8312
      8305      8308      8311      8313      8305      8308      8311      8314
      8306      8305      8308      8309      8306      8305      8308      8310
      8306      8305      8308      8311      8307      8305      8308      8309
      8307      8305      8308      8310      8307      8305      8308      8311
      8308      8311      8314      8315      8308      8311      8314      8316
      8308      8311      8314      8317      8309      8308      8311      8312
      8309      8308      8311      8313      8309      8308      8311      8314
      8310      8308      8311      8312      8310      8308      8311      8313
      8310      8308      8311      8314      8311      8314      8317      8318
      8311      8314      8317      8319      8311      8314      8317      8320
      8312      8311      8314      8315      8312      8311      8314      8316
      8312      8311      8314      8317      8313      8311      8314      8315
      8313      8311      8314      8316      8313      8311      8314      8317
      8315      8314      8317      8318      8315      8314      8317      8319
      8315      8314      8317      8320      8316      8314      8317      8318
      8316      8314      8317      8319      8316      8314      8317      8320

       128 !NIMPHI: impropers
        31        30        33        32        40        39        42        41
       161       160       163       162       170       169       172       171
       291       290       293       292       300       299       302       301
       421       420       423       422       430       429       432       431
       551       550       553       552       560       559       562       561
       681       680       683       682       690       689       692       691
       811       810       813       812       820       819       822       821
       941       940       943       942       950       949       952       951
      1071      1070      1073      1072      1080      1079      1082      1081
      1201      1200      1203      1202      1210      1209      1212      1211
      1331      1330      1333      1332      1340      1339      1342      1341
      1461      1460      1463      1462      1470      1469      1472      1471
      1591      1590      1593      1592      1600      1599      1602      1601
      1721      1720      1723      1722      1730      1729      1732      1731
      1851      1850      1853      1852      1860      1859      1862      1861
      1981      1980      1983      1982      1990      1989      1992      1991
      2111      2110      2113      2112      2120      2119      2122      2121
      2241      2240      2243      2242      2250      2249      2252      2251
      2371      2370      2373      2372      2380      2379      2382      2381
      2501      2500      2503      2502      2510      2509      2512      2511
      2631      2630      2633      2632      2640      2639      2642      2641
      2761      2760      2763      2762      2770      2769      2772      2771
      2891      2890      2893      2892      2900      2899      2902      2901
      3021      3020      3023      3022      3030      3029      3032      3031
      3151      3150      3153      3152      3160      3159      3162      3161
      3281      3280      3283      3282      3290      3289      3292      3291
      3411      3410      3413      3412      3420      3419      3422      3421
      3541      3540      3543      3542      3550      3549      3552      3551
      3671      3670      3673      3672      3680      3679      3682      3681
      3801      3800      3803      3802      3810      3809      3812      3811
      3931      3930      3933      3932      3940      3939      3942      3941
      4061      4060      4063      4062      4070      4069      4072      4071
      4191      4190      4193      4192      4200      4199      4202      4201
      4321      4320      4323      4322      4330      4329      4332      4331
      4451      4450      4453      4452      4460      4459      4462      4461
      4581      4580      4583      4582      4590      4589      4592      4591
      4711      4710      4713      4712      4720      4719      4722      4721
      4841      4840      4843      4842      4850      4849      4852      4851
      4971      4970      4973      4972      4980      4979      4982      4981
      5101      5100      5103      5102      5110      5109      5112      5111
      5231      5230      5233      5232      5240      5239      5242      5241
      5361      5360      5363      5362      5370      5369      5372      5371
      5491      5490      5493      5492      5500      5499      5502      5501
      5621      5620      5623      5622      5630      5629      5632      5631
      5751      5750      5753      5752      5760      5759      5762      5761
      5881      5880      5883      5882      5890      5889      5892      5891
      6011      6010      6013      6012      6020      6019      6022      6021
      6141      6140      6143      6142      6150      6149      6152      6151
      6271      6270      6273      6272      6280      6279      6282      6281
      6401      6400      6403      6402      6410      6409      6412      6411
      6531      6530      6533      6532      6540      6539      6542      6541
      6661      6660      6663      6662      6670      6669      6672      6671
      6791      6790      6793      6792      6800      6799      6802      6801
      6921      6920      6923      6922      6930      6929      6932      6931
      7051      7050      7053      7052      7060      7059      7062      7061
      7181      7180      7183      7182      7190      7189      7192      7191
      7311      7310      7313      7312      7320      7319      7322      7321
      7441      7440      7443      7442      7450      7449      7452      7451
      7571      7570      7573      7572      7580      7579      7582      7581
      7701      7700      7703      7702      7710      7709      7712      7711
      7831      7830      7833      7832      7840      7839      7842      7841
      7961      7960      7963      7962      7970      7969      7972      7971
      8091      8090      8093      8092      8100      8099      8102      8101
      8221      8220      8223      8222      8230      8229      8232      8231

         0 !NDON: donors


         0 !NACC: acceptors


         0 !NNB

         0         0         0         0         0         0         0         0
         0         0         0         0         0         0         0         0
         0         0         0         0         0         0         0         0
         0         0         0         0         0         0         0         0
         0         0         0         0         0         0         0         0
         0         0         0         0         0         0         0         0
         0         0         0         0         0         0         0         0
         0         0         0         0         0         0         0         0
         0         0         0         0         0         0         0         0
         0         0         0         0         0         0         0         0
         0         0         0         0         0         0         0         0
         0         0         0         0         0         0         0         0
         0         0         0         0         0         0         0         0
         0         0         0         0         0         0         0         0
         0         0         0         0         0         0         0         0
         0         0         0         0         0         0         0         0
         0         0         0         0         0         0         0         0
         0         0         0         0         0         0         0         0
         0         0         0         0         0         0         0         0
         0         0         0         0         0         0         0         0
         0         0         0         0         0         0         0         0
         0         0         0         0         0         0         0         0
         0         0         0         0         0         0         0         0
         0         0         0         0         0         0         0         0
         0         0         0         0         0         0         0         0
         0         0         0         0         0         0         0         0
         0         0         0         0         0         0         0         0
         0         0         0         0         0         0         0         0
         0         0         0         0         0         0         0         0
         0         0         0         0         0         0         0         0
         0         0         0         0         0         0         0         0
         0         0         0         0         0         0         0         0
         0         0         0         0         0         0         0         0
         0         0         0         0         0         0         0         0
         0         0         0         0         0         0         0         0
         0         0         0         0         0         0         0         0
         0         0         0         0         0         0         0         0
         0         0         0         0         0         0         0         0
         0         0         0         0         0         0         0         0
         0         0         0         0         0         0         0         0
         0         0         0         0         0         0         0         0
         0         0         0         0         0         0         0         0
         0         0         0         0         0         0         0         0
         0         0         0         0         0         0         0         0
         0         0         0         0         0         0         0         0
         0         0         0         0         0         0         0         0
         0         0         0         0         0         0         0         0
         0         0         0         0         0         0         0         0
         0         0         0         0         0         0         0         0
         0         0         0         0         0         0         0         0
         0         0         0         0         0         0         0         0
         0         0         0         0         0         0         0         0
         0         0         0         0         0         0         0         0
         0         0         0         0         0         0         0         0
         0         0         0         0         0         0         0         0
         0         0         0         0         0         0         0         0
         0         0         0         0         0         0         0         0
         0         0         0         0         0         0         0         0
         0         0         0         0         0         0         0         0
         0         0         0         0         0         0         0         0
         0         0         0         0         0         0         0         0
         0         0         0         0         0         0         0         0
         0         0         0         0         0         0         0         0
         0         0         0         0         0         0         0         0
         0         0         0         0         0         0         0         0
         0         0         0         0         0         0         0         0
         0         0         0         0         0         0         0         0
         0         0         0         0         0         0         0         0
         0         0         0         0         0         0         0         0
         0         0         0         0         0         0         0         0
         0         0         0         0         0         0         0         0
         0         0         0         0         0         0         0         0
         0         0         0         0         0         0         0         0
         0         0         0         0         0         0         0         0
         0         0         0         0         0         0         0         0
         0         0         0         0         0         0         0         0
         0         0         0         0         0         0         0         0
         0         0         0         0         0         0         0         0
         0         0         0         0         0         0         0         0
         0         0         0         0         0         0         0         0
         0         0         0         0         0         0         0         0
         0         0         0         0         0         0         0         0
         0         0         0         0         0         0         0         0
         0         0         0         0         0         0         0         0
         0         0         0         0         0         0         0         0
         0         0         0         0         0         0         0         0
         0         0         0         0         0         0         0         0
         0         0         0         0         0         0         0         0
         0         0         0         0         0         0         0         0
         0         0         0         0         0         0         0         0
         0         0         0         0         0         0         0         0
         0         0         0         0         0         0         0         0
         0         0         0         0         0         0         0         0
         0         0         0         0         0         0         0         0
         0         0         0         0         0         0         0         0
         0         0         0         0         0         0         0         0
         0         0         0         0         0         0         0         0
         0         0         0         0         0         0         0         0
         0         0         0         0         0         0         0         0
         0         0         0         0         0         0         0         0
         0         0         0         0         0         0         0         0
         0         0         0         0         0         0         0         0
         0         0         0         0         0         0         0         0
         0         0         0         0         0         0         0         0
         0         0         0         0         0         0         0         0
         0         0         0         0         0         0         0         0
         0         0         0         0         0         0         0         0
         0         0         0         0         0         0         0         0
         0         0         0         0         0         0         0         0
         0         0         0         0         0         0         0         0
         0         0         0         0         0         0         0         0
         0         0         0         0         0         0         0         0
         0         0         0         0         0         0         0         0
         0         0         0         0         0         0         0         0
         0         0         0         0         0         0         0         0
         0         0         0         0         0         0         0         0
         0         0         0         0         0         0         0         0
         0         0         0         0         0         0         0         0
         0         0         0         0         0         0         0         0
         0         0         0         0         0         0         0         0
         0         0         0         0         0         0         0         0
         0         0         0         0         0         0         0         0
         0         0         0         0         0         0         0         0
         0         0         0         0         0         0         0         0
         0         0         0         0         0         0         0         0
         0         0         0         0         0         0         0         0
         0         0         0         0         0         0         0         0
         0         0         0         0         0         0         0         0
         0         0         0         0         0         0         0         0
         0         0         0         0         0         0         0         0
         0         0         0         0         0         0         0         0
         0         0         0         0         0         0         0         0
         0         0         0         0         0         0         0         0
         0         0         0         0         0         0         0         0
         0         0         0         0         0         0         0         0
         0         0         0         0         0         0         0         0
         0         0         0         0         0         0         0         0
         0         0         0         0         0         0         0         0
         0         0         0         0         0         0         0         0
         0         0         0         0         0         0         0         0
         0         0         0         0         0         0         0         0
         0         0         0         0         0         0         0         0
         0         0         0         0         0         0         0         0
         0         0         0         0         0         0         0         0
         0         0         0         0         0         0         0         0
         0         0         0         0         0         0         0         0
         0         0         0         0         0         0         0         0
         0         0         0         0         0         0         0         0
         0         0         0         0         0         0         0         0
         0         0         0         0         0         0         0         0
         0         0         0         0         0         0         0         0
         0         0         0         0         0         0         0         0
         0         0         0         0         0         0         0         0
         0         0         0         0         0         0         0         0
         0         0         0         0         0         0         0         0
         0         0         0         0         0         0         0         0
         0         0         0         0         0         0         0         0
         0         0         0         0         0         0         0         0
         0         0         0         0         0         0         0         0
         0         0         0         0         0         0         0         0
         0         0         0         0         0         0         0         0
         0         0         0         0         0         0         0         0
         0         0         0         0         0         0         0         0
         0         0         0         0         0         0         0         0
         0         0         0         0         0         0         0         0
         0         0         0         0         0         0         0         0
         0         0         0         0         0         0         0         0
         0         0         0         0         0         0         0         0
         0         0         0         0         0         0         0         0
         0         0         0         0         0         0         0         0
         0         0         0         0         0         0         0         0
         0         0         0         0         0         0         0         0
         0         0         0         0         0         0         0         0
         0         0         0         0         0         0         0         0
         0         0         0         0         0         0         0         0
         0         0         0         0         0         0         0         0
         0         0         0         0         0         0         0         0
         0         0         0         0         0         0         0         0
         0         0         0         0         0         0         0         0
         0         0         0         0         0         0         0         0
         0         0         0         0         0         0         0         0
         0         0         0         0         0         0         0         0
         0         0         0         0         0         0         0         0
         0         0         0         0         0         0         0         0
         0         0         0         0         0         0         0         0
         0         0         0         0         0         0         0         0
         0         0         0         0         0         0         0         0
         0         0         0         0         0         0         0         0
         0         0         0         0         0         0         0         0
         0         0         0         0         0         0         0         0
         0         0         0         0         0         0         0         0
         0         0         0         0         0         0         0         0
         0         0         0         0         0         0         0         0
         0         0         0         0         0         0         0         0
         0         0         0         0         0         0         0         0
         0         0         0         0         0         0         0         0
         0         0         0         0         0         0         0         0
         0         0         0         0         0         0         0         0
         0         0         0         0         0         0         0         0
         0         0         0         0         0         0         0         0
         0         0         0         0         0         0         0         0
         0         0         0         0         0         0         0         0
         0         0         0         0         0         0         0         0
         0         0         0         0         0         0         0         0
         0         0         0         0         0         0         0         0
         0         0         0         0         0         0         0         0
         0         0         0         0         0         0         0         0
         0         0         0         0         0         0         0         0
         0         0         0         0         0         0         0         0
         0         0         0         0         0         0         0         0
         0         0         0         0         0         0         0         0
         0         0         0         0         0         0         0         0
         0         0         0         0         0         0         0         0
         0         0         0         0         0         0         0         0
         0         0         0         0         0         0         0         0
         0         0         0         0         0         0         0         0
         0         0         0         0         0         0         0         0
         0         0         0         0         0         0         0         0
         0         0         0         0         0         0         0         0
         0         0         0         0         0         0         0         0
         0         0         0         0         0         0         0         0
         0         0         0         0         0         0         0         0
         0         0         0         0         0         0         0         0
         0         0         0         0         0         0         0         0
         0         0         0         0         0         0         0         0
         0         0         0         0         0         0         0         0
         0         0         0         0         0         0         0         0
         0         0         0         0         0         0         0         0
         0         0         0         0         0         0         0         0
         0         0         0         0         0         0         0         0
         0         0         0         0         0         0         0         0
         0         0         0         0         0         0         0         0
         0         0         0         0         0         0         0         0
         0         0         0         0         0         0         0         0
         0         0         0         0         0         0         0         0
         0         0         0         0         0         0         0         0
         0         0         0         0         0         0         0         0
         0         0         0         0         0         0         0         0
         0         0         0         0         0         0         0         0
         0         0         0         0         0         0         0         0
         0         0         0         0         0         0         0         0
         0         0         0         0         0         0         0         0
         0         0         0         0         0         0         0         0
         0         0         0         0         0         0         0         0
         0         0         0         0         0         0         0         0
         0         0         0         0         0         0         0         0
         0         0         0         0         0         0         0         0
         0         0         0         0         0         0         0         0
         0         0         0         0         0         0         0         0
         0         0         0         0         0         0         0         0
         0         0         0         0         0         0         0         0
         0         0         0         0         0         0         0         0
         0         0         0         0         0         0         0         0
         0         0         0         0         0         0         0         0
         0         0         0         0         0         0         0         0
         0         0         0         0         0         0         0         0
         0         0         0         0         0         0         0         0
         0         0         0         0         0         0         0         0
         0         0         0         0         0         0         0         0
         0         0         0         0         0         0         0         0
         0         0         0         0         0         0         0         0
         0         0         0         0         0         0         0         0
         0         0         0         0         0         0         0         0
         0         0         0         0         0         0         0         0
         0         0         0         0         0         0         0         0
         0         0         0         0         0         0         0         0
         0         0         0         0         0         0         0         0
         0         0         0         0         0         0         0         0
         0         0         0         0         0         0         0         0
         0         0         0         0         0         0         0         0
         0         0         0         0         0         0         0         0
         0         0         0         0         0         0         0         0
         0         0         0         0         0         0         0         0
         0         0         0         0         0         0         0         0
         0         0         0         0         0         0         0         0
         0         0         0         0         0         0         0         0
         0         0         0         0         0         0         0         0
         0         0         0         0         0         0         0         0
         0         0         0         0         0         0         0         0
         0         0         0         0         0         0         0         0
         0         0         0         0         0         0         0         0
         0         0         0         0         0         0         0         0
         0         0         0         0         0         0         0         0
         0         0         0         0         0         0         0         0
         0         0         0         0         0         0         0         0
         0         0         0         0         0         0         0         0
         0         0         0         0         0         0         0         0
         0         0         0         0         0         0         0         0
         0         0         0         0         0         0         0         0
         0         0         0         0         0         0         0         0
         0         0         0         0         0         0         0         0
         0         0         0         0         0         0         0         0
         0         0         0         0         0         0         0         0
         0         0         0         0         0         0         0         0
         0         0         0         0         0         0         0         0
         0         0         0         0         0         0         0         0
         0         0         0         0         0         0         0         0
         0         0         0         0         0         0         0         0
         0         0         0         0         0         0         0         0
         0         0         0         0         0         0         0         0
         0         0         0         0         0         0         0         0
         0         0         0         0         0         0         0         0
         0         0         0         0         0         0         0         0
         0         0         0         0         0         0         0         0
         0         0         0         0         0         0         0         0
         0         0         0         0         0         0         0         0
         0         0         0         0         0         0         0         0
         0         0         0         0         0         0         0         0
         0         0         0         0         0         0         0         0
         0         0         0         0         0         0         0         0
         0         0         0         0         0         0         0         0
         0         0         0         0         0         0         0         0
         0         0         0         0         0         0         0         0
         0         0         0         0         0         0         0         0
         0         0         0         0         0         0         0         0
         0         0         0         0         0         0         0         0
         0         0         0         0         0         0         0         0
         0         0         0         0         0         0         0         0
         0         0         0         0         0         0         0         0
         0         0         0         0         0         0         0         0
         0         0         0         0         0         0         0         0
         0         0         0         0         0         0         0         0
         0         0         0         0         0         0         0         0
         0         0         0         0         0         0         0         0
         0         0         0         0         0         0         0         0
         0         0         0         0         0         0         0         0
         0         0         0         0         0         0         0         0
         0         0         0         0         0         0         0         0
         0         0         0         0         0         0         0         0
         0         0         0         0         0         0         0         0
         0         0         0         0         0         0         0         0
         0         0         0         0         0         0         0         0
         0         0         0         0         0         0         0         0
         0         0         0         0         0         0         0         0
         0         0         0         0         0         0         0         0
         0         0         0         0         0         0         0         0
         0         0         0         0         0         0         0         0
         0         0         0         0         0         0         0         0
         0         0         0         0         0         0         0         0
         0         0         0         0         0         0         0         0
         0         0         0         0         0         0         0         0
         0         0         0         0         0         0         0         0
         0         0         0         0         0         0         0         0
         0         0         0         0         0         0         0         0
         0         0         0         0         0         0         0         0
         0         0         0         0         0         0         0         0
         0         0         0         0         0         0         0         0
         0         0         0         0         0         0         0         0
         0         0         0         0         0         0         0         0
         0         0         0         0         0         0         0         0
         0         0         0         0         0         0         0         0
         0         0         0         0         0         0         0         0
         0         0         0         0         0         0         0         0
         0         0         0         0         0         0         0         0
         0         0         0         0         0         0         0         0
         0         0         0         0         0         0         0         0
         0         0         0         0         0         0         0         0
         0         0         0         0         0         0         0         0
         0         0         0         0         0         0         0         0
         0         0         0         0         0         0         0         0
         0         0         0         0         0         0         0         0
         0         0         0         0         0         0         0         0
         0         0         0         0         0         0         0         0
         0         0         0         0         0         0         0         0
         0         0         0         0         0         0         0         0
         0         0         0         0         0         0         0         0
         0         0         0         0         0         0         0         0
         0         0         0         0         0         0         0         0
         0         0         0         0         0         0         0         0
         0         0         0         0         0         0         0         0
         0         0         0         0         0         0         0         0
         0         0         0         0         0         0         0         0
         0         0         0         0         0         0         0         0
         0         0         0         0         0         0         0         0
         0         0         0         0         0         0         0         0
         0         0         0         0         0         0         0         0
         0         0         0         0         0         0         0         0
         0         0         0         0         0         0         0         0
         0         0         0         0         0         0         0         0
         0         0         0         0         0         0         0         0
         0         0         0         0         0         0         0         0
         0         0         0         0         0         0         0         0
         0         0         0         0         0         0         0         0
         0         0         0         0         0         0         0         0
         0         0         0         0         0         0         0         0
         0         0         0         0         0         0         0         0
         0         0         0         0         0         0         0         0
         0         0         0         0         0         0         0         0
         0         0         0         0         0         0         0         0
         0         0         0         0         0         0         0         0
         0         0         0         0         0         0         0         0
         0         0         0         0         0         0         0         0
         0         0         0         0         0         0         0         0
         0         0         0         0         0         0         0         0
         0         0         0         0         0         0         0         0
         0         0         0         0         0         0         0         0
         0         0         0         0         0         0         0         0
         0         0         0         0         0         0         0         0
         0         0         0         0         0         0         0         0
         0         0         0         0         0         0         0         0
         0         0         0         0         0         0         0         0
         0         0         0         0         0         0         0         0
         0         0         0         0         0         0         0         0
         0         0         0         0         0         0         0         0
         0         0         0         0         0         0         0         0
         0         0         0         0         0         0         0         0
         0         0         0         0         0         0         0         0
         0         0         0         0         0         0         0         0
         0         0         0         0         0         0         0         0
         0         0         0         0         0         0         0         0
         0         0         0         0         0         0         0         0
         0         0         0         0         0         0         0         0
         0         0         0         0         0         0         0         0
         0         0         0         0         0         0         0         0
         0         0         0         0         0         0         0         0
         0         0         0         0         0         0         0         0
         0         0         0         0         0         0         0         0
         0         0         0         0         0         0         0         0
         0         0         0         0         0         0         0         0
         0         0         0         0         0         0         0         0
         0         0         0         0         0         0         0         0
         0         0         0         0         0         0         0         0
         0         0         0         0         0         0         0         0
         0         0         0         0         0         0         0         0
         0         0         0         0         0         0         0         0
         0         0         0         0         0         0         0         0
         0         0         0         0         0         0         0         0
         0         0         0         0         0         0         0         0
         0         0         0         0         0         0         0         0
         0         0         0         0         0         0         0         0
         0         0         0         0         0         0         0         0
         0         0         0         0         0         0         0         0
         0         0         0         0         0         0         0         0
         0         0         0         0         0         0         0         0
         0         0         0         0         0         0         0         0
         0         0         0         0         0         0         0         0
         0         0         0         0         0         0         0         0
         0         0         0         0         0         0         0         0
         0         0         0         0         0         0         0         0
         0         0         0         0         0         0         0         0
         0         0         0         0         0         0         0         0
         0         0         0         0         0         0         0         0
         0         0         0         0         0         0         0         0
         0         0         0         0         0         0         0         0
         0         0         0         0         0         0         0         0
         0         0         0         0         0         0         0         0
         0         0         0         0         0         0         0         0
         0         0         0         0         0         0         0         0
         0         0         0         0         0         0         0         0
         0         0         0         0         0         0         0         0
         0         0         0         0         0         0         0         0
         0         0         0         0         0         0         0         0
         0         0         0         0         0         0         0         0
         0         0         0         0         0         0         0         0
         0         0         0         0         0         0         0         0
         0         0         0         0         0         0         0         0
         0         0         0         0         0         0         0         0
         0         0         0         0         0         0         0         0
         0         0         0         0         0         0         0         0
         0         0         0         0         0         0         0         0
         0         0         0         0         0         0         0         0
         0         0         0         0         0         0         0         0
         0         0         0         0         0         0         0         0
         0         0         0         0         0         0         0         0
         0         0         0         0         0         0         0         0
         0         0         0         0         0         0         0         0
         0         0         0         0         0         0         0         0
         0         0         0         0         0         0         0         0
         0         0         0         0         0         0         0         0
         0         0         0         0         0         0         0         0
         0         0         0         0         0         0         0         0
         0         0         0         0         0         0         0         0
         0         0         0         0         0         0         0         0
         0         0         0         0         0         0         0         0
         0         0         0         0         0         0         0         0
         0         0         0         0         0         0         0         0
         0         0         0         0         0         0         0         0
         0         0         0         0         0         0         0         0
         0         0         0         0         0         0         0         0
         0         0         0         0         0         0         0         0
         0         0         0         0         0         0         0         0
         0         0         0         0         0         0         0         0
         0         0         0         0         0         0         0         0
         0         0         0         0         0         0         0         0
         0         0         0         0         0         0         0         0
         0         0         0         0         0         0         0         0
         0         0         0         0         0         0         0         0
         0         0         0         0         0         0         0         0
         0         0         0         0         0         0         0         0
         0         0         0         0         0         0         0         0
         0         0         0         0         0         0         0         0
         0         0         0         0         0         0         0         0
         0         0         0         0         0         0         0         0
         0         0         0         0         0         0         0         0
         0         0         0         0         0         0         0         0
         0         0         0         0         0         0         0         0
         0         0         0         0         0         0         0         0
         0         0         0         0         0         0         0         0
         0         0         0         0         0         0         0         0
         0         0         0         0         0         0         0         0
         0         0         0         0         0         0         0         0
         0         0         0         0         0         0         0         0
         0         0         0         0         0         0         0         0
         0         0         0         0         0         0         0         0
         0         0         0         0         0         0         0         0
         0         0         0         0         0         0         0         0
         0         0         0         0         0         0         0         0
         0         0         0         0         0         0         0         0
         0         0         0         0         0         0         0         0
         0         0         0         0         0         0         0         0
         0         0         0         0         0         0         0         0
         0         0         0         0         0         0         0         0
         0         0         0         0         0         0         0         0
         0         0         0         0         0         0         0         0
         0         0         0         0         0         0         0         0
         0         0         0         0         0         0         0         0
         0         0         0         0         0         0         0         0
         0         0         0         0         0         0         0         0
         0         0         0         0         0         0         0         0
         0         0         0         0         0         0         0         0
         0         0         0         0         0         0         0         0
         0         0         0         0         0         0         0         0
         0         0         0         0         0         0         0         0
         0         0         0         0         0         0         0         0
         0         0         0         0         0         0         0         0
         0         0         0         0         0         0         0         0
         0         0         0         0         0         0         0         0
         0         0         0         0         0         0         0         0
         0         0         0         0         0         0         0         0
         0         0         0         0         0         0         0         0
         0         0         0         0         0         0         0         0
         0         0         0         0         0         0         0         0
         0         0         0         0         0         0         0         0
         0         0         0         0         0         0         0         0
         0         0         0         0         0         0         0         0
         0         0         0         0         0         0         0         0
         0         0         0         0         0         0         0         0
         0         0         0         0         0         0         0         0
         0         0         0         0         0         0         0         0
         0         0         0         0         0         0         0         0
         0         0         0         0         0         0         0         0
         0         0         0         0         0         0         0         0
         0         0         0         0         0         0         0         0
         0         0         0         0         0         0         0         0
         0         0         0         0         0         0         0         0
         0         0         0         0         0         0         0         0
         0         0         0         0         0         0         0         0
         0         0         0         0         0         0         0         0
         0         0         0         0         0         0         0         0
         0         0         0         0         0         0         0         0
         0         0         0         0         0         0         0         0
         0         0         0         0         0         0         0         0
         0         0         0         0         0         0         0         0
         0         0         0         0         0         0         0         0
         0         0         0         0         0         0         0         0
         0         0         0         0         0         0         0         0
         0         0         0         0         0         0         0         0
         0         0         0         0         0         0         0         0
         0         0         0         0         0         0         0         0
         0         0         0         0         0         0         0         0
         0         0         0         0         0         0         0         0
         0         0         0         0         0         0         0         0
         0         0         0         0         0         0         0         0
         0         0         0         0         0         0         0         0
         0         0         0         0         0         0         0         0
         0         0         0         0         0         0         0         0
         0         0         0         0         0         0         0         0
         0         0         0         0         0         0         0         0
         0         0         0         0         0         0         0         0
         0         0         0         0         0         0         0         0
         0         0         0         0         0         0         0         0
         0         0         0         0         0         0         0         0
         0         0         0         0         0         0         0         0
         0         0         0         0         0         0         0         0
         0         0         0         0         0         0         0         0
         0         0         0         0         0         0         0         0
         0         0         0         0         0         0         0         0
         0         0         0         0         0         0         0         0
         0         0         0         0         0         0         0         0
         0         0         0         0         0         0         0         0
         0         0         0         0         0         0         0         0
         0         0         0         0         0         0         0         0
         0         0         0         0         0         0         0         0
         0         0         0         0         0         0         0         0
         0         0         0         0         0         0         0         0
         0         0         0         0         0         0         0         0
         0         0         0         0         0         0         0         0
         0         0         0         0         0         0         0         0
         0         0         0         0         0         0         0         0
         0         0         0         0         0         0         0         0
         0         0         0         0         0         0         0         0
         0         0         0         0         0         0         0         0
         0         0         0         0         0         0         0         0
         0         0         0         0         0         0         0         0
         0         0         0         0         0         0         0         0
         0         0         0         0         0         0         0         0
         0         0         0         0         0         0         0         0
         0         0         0         0         0         0         0         0
         0         0         0         0         0         0         0         0
         0         0         0         0         0         0         0         0
         0         0         0         0         0         0         0         0
         0         0         0         0         0         0         0         0
         0         0         0         0         0         0         0         0
         0         0         0         0         0         0         0         0
         0         0         0         0         0         0         0         0
         0         0         0         0         0         0         0         0
         0         0         0         0         0         0         0         0
         0         0         0         0         0         0         0         0
         0         0         0         0         0         0         0         0
         0         0         0         0         0         0         0         0
         0         0         0         0         0         0         0         0
         0         0         0         0         0         0         0         0
         0         0         0         0         0         0         0         0
         0         0         0         0         0         0         0         0
         0         0         0         0         0         0         0         0
         0         0         0         0         0         0         0         0
         0         0         0         0         0         0         0         0
         0         0         0         0         0         0         0         0
         0         0         0         0         0         0         0         0
         0         0         0         0         0         0         0         0
         0         0         0         0         0         0         0         0
         0         0         0         0         0         0         0         0
         0         0         0         0         0         0         0         0
         0         0         0         0         0         0         0         0
         0         0         0         0         0         0         0         0
         0         0         0         0         0         0         0         0
         0         0         0         0         0         0         0         0
         0         0         0         0         0         0         0         0
         0         0         0         0         0         0         0         0
         0         0         0         0         0         0         0         0
         0         0         0         0         0         0         0         0
         0         0         0         0         0         0         0         0
         0         0         0         0         0         0         0         0
         0         0         0         0         0         0         0         0
         0         0         0         0         0         0         0         0
         0         0         0         0         0         0         0         0
         0         0         0         0         0         0         0         0
         0         0         0         0         0         0         0         0
         0         0         0         0         0         0         0         0
         0         0         0         0         0         0         0         0
         0         0         0         0         0         0         0         0
         0         0         0         0         0         0         0         0
         0         0         0         0         0         0         0         0
         0         0         0         0         0         0         0         0
         0         0         0         0         0         0         0         0
         0         0         0         0         0         0         0         0
         0         0         0         0         0         0         0         0
         0         0         0         0         0         0         0         0
         0         0         0         0         0         0         0         0
         0         0         0         0         0         0         0         0
         0         0         0         0         0         0         0         0
         0         0         0         0         0         0         0         0
         0         0         0         0         0         0         0         0
         0         0         0         0         0         0         0         0
         0         0         0         0         0         0         0         0
         0         0         0         0         0         0         0         0
         0         0         0         0         0         0         0         0
         0         0         0         0         0         0         0         0
         0         0         0         0         0         0         0         0
         0         0         0         0         0         0         0         0
         0         0         0         0         0         0         0         0
         0         0         0         0         0         0         0         0
         0         0         0         0         0         0         0         0
         0         0         0         0         0         0         0         0
         0         0         0         0         0         0         0         0
         0         0         0         0         0         0         0         0
         0         0         0         0         0         0         0         0
         0         0         0         0         0         0         0         0
         0         0         0         0         0         0         0         0
         0         0         0         0         0         0         0         0
         0         0         0         0         0         0         0         0
         0         0         0         0         0         0         0         0
         0         0         0         0         0         0         0         0
         0         0         0         0         0         0         0         0
         0         0         0         0         0         0         0         0
         0         0         0         0         0         0         0         0
         0         0         0         0         0         0         0         0
         0         0         0         0         0         0         0         0
         0         0         0         0         0         0         0         0
         0         0         0         0         0         0         0         0
         0         0         0         0         0         0         0         0
         0         0         0         0         0         0         0         0
         0         0         0         0         0         0         0         0
         0         0         0         0         0         0         0         0
         0         0         0         0         0         0         0         0
         0         0         0         0         0         0         0         0
         0         0         0         0         0         0         0         0
         0         0         0         0         0         0         0         0
         0         0         0         0         0         0         0         0
         0         0         0         0         0         0         0         0
         0         0         0         0         0         0         0         0
         0         0         0         0         0         0         0         0
         0         0         0         0         0         0         0         0
         0         0         0         0         0         0         0         0
         0         0         0         0         0         0         0         0
         0         0         0         0         0         0         0         0
         0         0         0         0         0         0         0         0
         0         0         0         0         0         0         0         0
         0         0         0         0         0         0         0         0
         0         0         0         0         0         0         0         0
         0         0         0         0         0         0         0         0
         0         0         0         0         0         0         0         0
         0         0         0         0         0         0         0         0
         0         0         0         0         0         0         0         0
         0         0         0         0         0         0         0         0
         0         0         0         0         0         0         0         0
         0         0         0         0         0         0         0         0
         0         0         0         0         0         0         0         0
         0         0         0         0         0         0         0         0
         0         0         0         0         0         0         0         0
         0         0         0         0         0         0         0         0
         0         0         0         0         0         0         0         0
         0         0         0         0         0         0         0         0
         0         0         0         0         0         0         0         0
         0         0         0         0         0         0         0         0
         0         0         0         0         0         0         0         0
         0         0         0         0         0         0         0         0
         0         0         0         0         0         0         0         0
         0         0         0         0         0         0         0         0
         0         0         0         0         0         0         0         0
         0         0         0         0         0         0         0         0
         0         0         0         0         0         0         0         0
         0         0         0         0         0         0         0         0
         0         0         0         0         0         0         0         0
         0         0         0         0         0         0         0         0
         0         0         0         0         0         0         0         0
         0         0         0         0         0         0         0         0
         0         0         0         0         0         0         0         0
         0         0         0         0         0         0         0         0
         0         0         0         0         0         0         0         0
         0         0         0         0         0         0         0         0
         0         0         0         0         0         0         0         0
         0         0         0         0         0         0         0         0
         0         0         0         0         0         0         0         0
         0         0         0         0         0         0         0         0
         0         0         0         0         0         0         0         0
         0         0         0         0         0         0         0         0
         0         0         0         0         0         0         0         0
         0         0         0         0         0         0         0         0
         0         0         0         0         0         0         0         0
         0         0         0         0         0         0         0         0
         0         0         0         0         0         0         0         0
         0         0         0         0         0         0         0         0
         0         0         0         0         0         0         0         0
         0         0         0         0         0         0         0         0
         0         0         0         0         0         0         0         0
         0         0         0         0         0         0         0         0
         0         0         0         0         0         0         0         0
         0         0         0         0         0         0         0         0
         0         0         0         0         0         0         0         0
         0         0         0         0         0         0         0         0
         0         0         0         0         0         0         0         0
         0         0         0         0         0         0         0         0
         0         0         0         0         0         0         0         0
         0         0         0         0         0         0         0         0
         0         0         0         0         0         0         0         0
         0         0         0         0         0         0         0         0
         0         0         0         0         0         0         0         0
         0         0         0         0         0         0         0         0
         0         0         0         0         0         0         0         0
         0         0         0         0         0         0         0         0
         0         0         0         0         0         0         0         0
         0         0         0         0         0         0         0         0
         0         0         0         0         0         0         0         0
         0         0         0         0         0         0         0         0
         0         0         0         0         0         0         0         0
         0         0         0         0         0         0         0         0
         0         0         0         0         0         0         0         0
         0         0         0         0         0         0         0         0
         0         0         0         0         0         0         0         0
         0         0         0         0         0         0         0         0
         0         0         0         0         0         0         0         0
         0         0         0         0         0         0         0         0
         0         0         0         0         0         0         0         0
         0         0         0         0         0         0         0         0
         0         0         0         0         0         0         0         0
         0         0         0         0         0         0         0         0
         0         0         0         0         0         0         0         0
         0         0         0         0         0         0         0         0
         0         0         0         0         0         0         0         0
         0         0         0         0         0         0         0         0
         0         0         0         0         0         0         0         0
         0         0         0         0         0         0         0         0
         0         0         0         0         0         0         0         0
         0         0         0         0         0         0         0         0
         0         0         0         0         0         0         0         0
         0         0         0         0         0         0         0         0
         0         0         0         0         0         0         0         0
         0         0         0         0         0         0         0         0
         0         0         0         0         0         0         0         0
         0         0         0         0         0         0         0         0
         0         0         0         0         0         0         0         0
         0         0         0         0         0         0         0         0
         0         0         0         0         0         0         0         0
         0         0         0         0         0         0         0         0
         0         0         0         0         0         0         0         0
         0         0         0         0         0         0         0         0
         0         0         0         0         0         0         0         0
         0         0         0         0         0         0         0         0
         0         0         0         0         0         0         0         0
         0         0         0         0         0         0         0         0
         0         0         0         0         0         0         0         0
         0         0         0         0         0         0         0         0
         0         0         0         0         0         0         0         0
         0         0         0         0         0         0         0         0
         0         0         0         0         0         0         0         0
         0         0         0         0         0         0         0         0
         0         0         0         0         0         0         0         0
         0         0         0         0         0         0         0         0
         0         0         0         0         0         0         0         0
         0         0         0         0         0         0         0         0
         0         0         0         0         0         0         0         0
         0         0         0         0         0         0         0         0
         0         0         0         0         0         0         0         0
         0         0         0         0         0         0         0         0
         0         0         0         0         0         0         0         0
         0         0         0         0         0         0         0         0
         0         0         0         0         0         0         0         0
         0         0         0         0         0         0         0         0
         0         0         0         0         0         0         0         0
         0         0         0         0         0         0         0         0
         0         0         0         0         0         0         0         0
         0         0         0         0         0         0         0         0
         0         0         0         0         0         0         0         0
         0         0         0         0         0         0         0         0
         0         0         0         0         0         0         0         0
         0         0         0         0         0         0         0         0
         0         0         0         0         0         0         0         0
         0         0         0         0         0         0         0         0
         0         0         0         0         0         0         0         0
         0         0         0         0         0         0         0         0
         0         0         0         0         0         0         0         0
         0         0         0         0         0         0         0         0
         0         0         0         0         0         0         0         0
         0         0         0         0         0         0         0         0
         0         0         0         0         0         0         0         0
         0         0         0         0         0         0         0         0
         0         0         0         0         0         0         0         0
         0         0         0         0         0         0         0         0
         0         0         0         0         0         0         0         0
         0         0         0         0         0         0         0         0
         0         0         0         0         0         0         0         0
         0         0         0         0         0         0         0         0
         0         0         0         0         0         0         0         0
         0         0         0         0         0         0         0         0
         0         0         0         0         0         0         0         0
         0         0         0         0         0         0         0         0
         0         0         0         0         0         0         0         0
         0         0         0         0         0         0         0         0
         0         0         0         0         0         0         0         0
         0         0         0         0         0         0         0         0
         0         0         0         0         0         0         0         0
         0         0         0         0         0         0         0         0
         0         0         0         0         0         0         0         0
         0         0         0         0         0         0         0         0
         0         0         0         0         0         0         0         0
         0         0         0         0         0         0         0         0
         0         0         0         0         0         0         0         0
         0         0         0         0         0         0         0         0
         0         0         0         0         0         0         0         0
         0         0         0         0         0         0         0         0
         0         0         0         0         0         0         0         0
         0         0         0         0         0         0         0         0
         0         0         0         0         0         0         0         0
         0         0         0         0         0         0         0         0
         0         0         0         0         0         0         0         0
         0         0         0         0         0         0         0         0
         0         0         0         0         0         0         0         0
         0         0         0         0         0         0         0         0
         0         0         0         0         0         0         0         0
         0         0         0         0         0         0         0         0
         0         0         0         0         0         0         0         0
         0         0         0         0         0         0         0         0
         0         0         0         0         0         0         0         0
         0         0         0         0         0         0         0         0
         0         0         0         0         0         0         0         0
         0         0         0         0         0         0         0         0
         0         0         0         0         0         0         0         0
         0         0         0         0         0         0         0         0
         0         0         0         0         0         0         0         0
         0         0         0         0         0         0         0         0
         0         0         0         0         0         0         0         0
         0         0         0         0         0         0         0         0
         0         0         0         0         0         0         0         0
         0         0         0         0         0         0         0         0
         0         0         0         0         0         0         0         0
         0         0         0         0         0         0         0         0
         0         0         0         0         0         0         0         0
         0         0         0         0         0         0         0         0
         0         0         0         0         0         0         0         0
         0         0         0         0         0         0         0         0
         0         0         0         0         0         0         0         0
         0         0         0         0         0         0         0         0
         0         0         0         0         0         0         0         0
         0         0         0         0         0         0         0         0
         0         0         0         0         0         0         0         0
         0         0         0         0         0         0         0         0
         0         0         0         0         0         0         0         0
         0         0         0         0         0         0         0         0
         0         0         0         0         0         0         0         0
         0         0         0         0         0         0         0         0
         0         0         0         0         0         0         0         0
         0         0         0         0         0         0         0         0
         0         0         0         0         0         0         0         0
         0         0         0         0         0         0         0         0
         0         0         0         0         0         0         0         0
         0         0         0         0         0         0         0         0
         0         0         0         0         0         0         0         0
         0         0         0         0         0         0         0         0
         0         0         0         0         0         0         0         0
         0         0         0         0         0         0         0         0
         0         0         0         0         0         0         0         0
         0         0         0         0         0         0         0         0
         0         0         0         0         0         0         0         0
         0         0         0         0         0         0         0         0
         0         0         0         0         0         0         0         0
         0         0         0         0         0         0         0         0
         0         0         0         0         0         0         0         0
         0         0         0         0         0         0         0         0
         0         0         0         0         0         0         0         0
         0         0         0         0         0         0         0         0
         0         0         0         0         0         0         0         0
         0         0         0         0         0         0         0         0
         0         0         0         0         0         0         0         0
         0         0         0         0         0         0         0         0
         0         0         0         0         0         0         0         0
         0         0         0         0         0         0         0         0
         0         0         0         0         0         0         0         0
         0         0         0         0         0         0         0         0
         0         0         0         0         0         0         0         0
         0         0         0         0         0         0         0         0
         0         0         0         0         0         0         0         0
         0         0         0         0         0         0         0         0
         0         0         0         0         0         0         0         0
         0         0         0         0         0         0         0         0
         0         0         0         0         0         0         0         0
         0         0         0         0         0         0         0         0
         0         0         0         0         0         0         0         0
         0         0         0         0         0         0         0         0
         0         0         0         0         0         0         0         0
         0         0         0         0         0         0         0         0
         0         0         0         0         0         0         0         0
         0         0         0         0         0         0         0         0
         0         0         0         0         0         0         0         0
         0         0         0         0         0         0         0         0
         0         0         0         0         0         0         0         0
         0         0         0         0         0         0         0         0
         0         0         0         0         0         0         0         0
         0         0         0         0         0         0         0         0
         0         0         0         0         0         0         0         0
         0         0         0         0         0         0         0         0
         0         0         0         0         0         0         0         0
         0         0         0         0         0         0         0         0
         0         0         0         0         0         0         0         0
         0         0         0         0         0         0         0         0
         0         0         0         0         0         0         0         0
         0         0         0         0         0         0         0         0
         0         0         0         0         0         0         0         0
         0         0         0         0         0         0         0         0
         0         0         0         0         0         0         0         0
         0         0         0         0         0         0         0         0
         0         0         0         0         0         0         0         0
         0         0         0         0         0         0         0         0
         0         0         0         0         0         0         0         0
         0         0         0         0         0         0         0         0
         0         0         0         0         0         0         0         0
         0         0         0         0         0         0         0         0
         0         0         0         0         0         0         0         0
         0         0         0         0         0         0         0         0
         0         0         0         0         0         0         0         0
         0         0         0         0         0         0         0         0
         0         0         0         0         0         0         0         0
         0         0         0         0         0         0         0         0
         0         0         0         0         0         0         0         0
         0         0         0         0         0         0         0         0
         0         0         0         0         0         0         0         0
         0         0         0         0         0         0         0         0
         0         0         0         0         0         0         0         0
         0         0         0         0         0         0         0         0
         0         0         0         0         0         0         0         0
         0         0         0         0         0         0         0         0
         0         0         0         0         0         0         0         0
         0         0         0         0         0         0         0         0
         0         0         0         0         0         0         0         0
         0         0         0         0         0         0         0         0
         0         0         0         0         0         0         0         0
         0         0         0         0         0         0         0         0
         0         0         0         0         0         0         0         0
         0         0         0         0         0         0         0         0
         0         0         0         0         0         0         0         0
         0         0         0         0         0         0         0         0
         0         0         0         0         0         0         0         0
         0         0         0         0         0         0         0         0
         0         0         0         0         0         0         0         0
         0         0         0         0         0         0         0         0
         0         0         0         0         0         0         0         0
         0         0         0         0         0         0         0         0
         0         0         0         0         0         0         0         0
         0         0         0         0         0         0         0         0
         0         0         0         0         0         0         0         0
         0         0         0         0         0         0         0         0
         0         0         0         0         0         0         0         0
         0         0         0         0         0         0         0         0
         0         0         0         0         0         0         0         0
         0         0         0         0         0         0         0         0
         0         0         0         0         0         0         0         0
         0         0         0         0         0         0         0         0
         0         0         0         0         0         0         0         0
         0         0         0         0         0         0         0         0
         0         0         0         0         0         0         0         0
         0         0         0         0         0         0         0         0
         0         0         0         0         0         0         0         0
         0         0         0         0         0         0         0         0
         0         0         0         0         0         0         0         0
         0         0         0         0         0         0         0         0
         0         0         0         0         0         0         0         0
         0         0         0         0         0         0         0         0
         0         0         0         0         0         0         0         0
         0         0         0         0         0         0         0         0
         0         0         0         0         0         0         0         0
         0         0         0         0         0         0         0         0
         0         0         0         0         0         0         0         0
         0         0         0         0         0         0         0         0
         0         0         0         0         0         0         0         0
         0         0         0         0         0         0         0         0
         0         0         0         0         0         0         0         0
         0         0         0         0         0         0         0         0
         0         0         0         0         0         0         0         0
         0         0         0         0         0         0         0         0
         0         0         0         0         0         0         0         0
         0         0         0         0         0         0         0         0
         0         0         0         0         0         0         0         0
         0         0         0         0         0         0         0         0
         0         0         0         0         0         0         0         0
         0         0         0         0         0         0         0         0
         0         0         0         0         0         0         0         0
         0         0         0         0         0         0         0         0
         0         0         0         0         0         0         0         0
         0         0         0         0         0         0         0         0
         0         0         0         0         0         0         0         0
         0         0         0         0         0         0         0         0
         0         0         0         0         0         0         0         0
         0         0         0         0         0         0         0         0
         0         0         0         0         0         0         0         0
         0         0         0         0         0         0         0         0
         0         0         0         0         0         0         0         0
         0         0         0         0         0         0         0         0
         0         0         0         0         0         0         0         0
         0         0         0         0         0         0         0         0
         0         0         0         0         0         0         0         0
         0         0         0         0         0         0         0         0
         0         0         0         0         0         0         0         0
         0         0         0         0         0         0         0         0
         0         0         0         0         0         0         0         0
         0         0         0         0         0         0         0         0
         0         0         0         0         0         0         0         0
         0         0         0         0         0         0         0         0
         0         0         0         0         0         0         0         0
         0         0         0         0         0         0         0         0
         0         0         0         0         0         0         0         0
         0         0         0         0         0         0         0         0
         0         0         0         0         0         0         0         0
         0         0         0         0         0         0         0         0
         0         0         0         0         0         0         0         0
         0         0         0         0         0         0         0         0
         0         0         0         0         0         0         0         0
         0         0         0         0         0         0         0         0
         0         0         0         0         0         0         0         0
         0         0         0         0         0         0         0         0
         0         0         0         0         0         0         0         0
         0         0         0         0         0         0         0         0
         0         0         0         0         0         0         0         0
         0         0         0         0         0         0         0         0
         0         0         0         0         0         0         0         0
         0         0         0         0         0         0         0         0
         0         0         0         0         0         0         0         0
         0         0         0         0         0         0         0         0
         0         0         0         0         0         0         0         0
         0         0         0         0         0         0         0         0
         0         0         0         0         0         0         0         0
         0         0         0         0         0         0         0         0
         0         0         0         0         0         0         0         0
         0         0         0         0         0         0         0         0
         0         0         0         0         0         0         0         0
         0         0         0         0         0         0         0         0
         0         0         0         0         0         0         0         0
         0         0         0         0         0         0         0         0
         0         0         0         0         0         0         0         0
         0         0         0         0         0         0         0         0
         0         0         0         0         0         0         0         0
         0         0         0         0         0         0         0         0
         0         0         0         0         0         0         0         0
         0         0         0         0         0         0         0         0
         0         0         0         0         0         0         0         0
         0         0         0         0         0         0         0         0
         0         0         0         0         0         0         0         0
         0         0         0         0         0         0         0         0
         0         0         0         0         0         0         0         0
         0         0         0         0         0         0         0         0
         0         0         0         0         0         0         0         0
         0         0         0         0         0         0         0         0
         0         0         0         0         0         0         0         0
         0         0         0         0         0         0         0         0
         0         0         0         0         0         0         0         0
         0         0         0         0         0         0         0         0
         0         0         0         0         0         0         0         0
         0         0         0         0         0         0         0         0
         0         0         0         0         0         0         0         0
         0         0         0         0         0         0         0         0
         0         0         0         0         0         0         0         0
         0         0         0         0         0         0         0         0
         0         0         0         0         0         0         0         0
         0         0         0         0         0         0         0         0
         0         0         0         0         0         0         0         0
         0         0         0         0         0         0         0         0
         0         0         0         0         0         0         0         0
         0         0         0         0         0         0         0         0
         0         0         0         0         0         0         0         0
         0         0         0         0         0         0         0         0
         0         0         0         0         0         0         0         0
         0         0         0         0         0         0         0         0
         0         0         0         0         0         0         0         0
         0         0         0         0         0         0         0         0
         0         0         0         0         0         0         0         0
         0         0         0         0         0         0         0         0
         0         0         0         0         0         0         0         0
         0         0         0         0         0         0         0         0
         0         0         0         0         0         0         0         0
         0         0         0         0         0         0         0         0
         0         0         0         0         0         0         0         0
         0         0         0         0         0         0         0         0
         0         0         0         0         0         0         0         0
         0         0         0         0         0         0         0         0
         0         0         0         0         0         0         0         0
         0         0         0         0         0         0         0         0
         0         0         0         0         0         0         0         0
         0         0         0         0         0         0         0         0
         0         0         0         0         0         0         0         0
         0         0         0         0         0         0         0         0
         0         0         0         0         0         0         0         0
         0         0         0         0         0         0         0         0
         0         0         0         0         0         0         0         0
         0         0         0         0         0         0         0         0
         0         0         0         0         0         0         0         0
         0         0         0         0         0         0         0         0
         0         0         0         0         0         0         0         0
         0         0         0         0         0         0         0         0
         0         0         0         0         0         0         0         0
         0         0         0         0         0         0         0         0
         0         0         0         0         0         0         0         0
         0         0         0         0         0         0         0         0
         0         0         0         0         0         0         0         0
         0         0         0         0         0         0         0         0
         0         0         0         0         0         0         0         0
         0         0         0         0         0         0         0         0
         0         0         0         0         0         0         0         0
         0         0         0         0         0         0         0         0
         0         0         0         0         0         0         0         0
         0         0         0         0         0         0         0         0
         0         0         0         0         0         0         0         0
         0         0         0         0         0         0         0         0
         0         0         0         0         0         0         0         0
         0         0         0         0         0         0         0         0
         0         0         0         0         0         0         0         0
         0         0         0         0         0         0         0         0
         0         0         0         0         0         0         0         0
         0         0         0         0         0         0         0         0
         0         0         0         0         0         0         0         0
         0         0         0         0         0         0         0         0
         0         0         0         0         0         0         0         0
         0         0         0         0         0         0         0         0
         0         0         0         0         0         0         0         0
         0         0         0         0         0         0         0         0
         0         0         0         0         0         0         0         0
         0         0         0         0         0         0         0         0
         0         0         0         0         0         0         0         0
         0         0         0         0         0         0         0         0
         0         0         0         0         0         0         0         0
         0         0         0         0         0         0         0         0
         0         0         0         0         0         0         0         0
         0         0         0         0         0         0         0         0
         0         0         0         0         0         0         0         0
         0         0         0         0         0         0         0         0
         0         0         0         0         0         0         0         0
         0         0         0         0         0         0         0         0
         0         0         0         0         0         0         0         0
         0         0         0         0         0         0         0         0
         0         0         0         0         0         0         0         0
         0         0         0         0         0         0         0         0
         0         0         0         0         0         0         0         0
         0         0         0         0         0         0         0         0
         0         0         0         0         0         0         0         0
         0         0         0         0         0         0         0         0
         0         0         0         0         0         0         0         0
         0         0         0         0         0         0         0         0
         0         0         0         0         0         0         0         0
         0         0         0         0         0         0         0         0
         0         0         0         0         0         0         0         0
         0         0         0         0         0         0         0         0
         0         0         0         0         0         0         0         0
         0         0         0         0         0         0         0         0
         0         0         0         0         0         0         0         0
         0         0         0         0         0         0         0         0
         0         0         0         0         0         0         0         0
         0         0         0         0         0         0         0         0
         0         0         0         0         0         0         0         0
         0         0         0         0         0         0         0         0
         0         0         0         0         0         0         0         0
         0         0         0         0         0         0         0         0
         0         0         0         0         0         0         0         0
         0         0         0         0         0         0         0         0
         0         0         0         0         0         0         0         0
         0         0         0         0         0         0         0         0
         0         0         0         0         0         0         0         0
         0         0         0         0         0         0         0         0
         0         0         0         0         0         0         0         0
         0         0         0         0         0         0         0         0
         0         0         0         0         0         0         0         0
         0         0         0         0         0         0         0         0
         0         0         0         0         0         0         0         0
         0         0         0         0         0         0         0         0
         0         0         0         0         0         0         0         0
         0         0         0         0         0         0         0         0
         0         0         0         0         0         0         0         0
         0         0         0         0         0         0         0         0
         0         0         0         0         0         0         0         0
         0         0         0         0         0         0         0         0
         0         0         0         0         0         0         0         0
         0         0         0         0         0         0         0         0
         0         0         0         0         0         0         0         0
         0         0         0         0         0         0         0         0
         0         0         0         0         0         0         0         0
         0         0         0         0         0         0         0         0
         0         0         0         0         0         0         0         0
         0         0         0         0         0         0         0         0
         0         0         0         0         0         0         0         0
         0         0         0         0         0         0         0         0
         0         0         0         0         0         0         0         0
         0         0         0         0         0         0         0         0
         0         0         0         0         0         0         0         0
         0         0         0         0         0         0         0         0
         0         0         0         0         0         0         0         0
         0         0         0         0         0         0         0         0
         0         0         0         0         0         0         0         0
         0         0         0         0         0         0         0         0
         0         0         0         0         0         0         0         0
         0         0         0         0         0         0         0         0
         0         0         0         0         0         0         0         0
         0         0         0         0         0         0         0         0
         0         0         0         0         0         0         0         0
         0         0         0         0         0         0         0         0
         0         0         0         0         0         0         0         0
         0         0         0         0         0         0         0         0
         0         0         0         0         0         0         0         0
         0         0         0         0         0         0         0         0
         0         0         0         0         0         0         0         0
         0         0         0         0         0         0         0         0
         0         0         0         0         0         0         0         0
         0         0         0         0         0         0         0         0
         0         0         0         0         0         0         0         0
         0         0         0         0         0         0         0         0
         0         0         0         0         0         0         0         0
         0         0         0         0         0         0         0         0
         0         0         0         0         0         0         0         0
         0         0         0         0         0         0         0         0
         0         0         0         0         0         0         0         0
         0         0         0         0         0         0         0         0
         0         0         0         0         0         0         0         0
         0         0         0         0         0         0         0         0
         0         0         0         0         0         0         0         0
         0         0         0         0         0         0         0         0
         0         0         0         0         0         0         0         0
         0         0         0         0         0         0         0         0
         0         0         0         0         0         0         0         0
         0         0         0         0         0         0         0         0
         0         0         0         0         0         0         0         0
         0         0         0         0         0         0         0         0
         0         0         0         0         0         0         0         0
         0         0         0         0         0         0         0         0
         0         0         0         0         0         0         0         0
         0         0         0         0         0         0         0         0
         0         0         0         0         0         0         0         0
         0         0         0         0         0         0         0         0
         0         0         0         0         0         0         0         0
         0         0         0         0         0         0         0         0
         0         0         0         0         0         0         0         0
         0         0         0         0         0         0         0         0
         0         0         0         0         0         0         0         0
         0         0         0         0         0         0         0         0
         0         0         0         0         0         0         0         0
         0         0         0         0         0         0         0         0
         0         0         0         0         0         0         0         0
         0         0         0         0         0         0         0         0
         0         0         0         0         0         0         0         0
         0         0         0         0         0         0         0         0
         0         0         0         0         0         0         0         0
         0         0         0         0         0         0         0         0
         0         0         0         0         0         0         0         0
         0         0         0         0         0         0         0         0
         0         0         0         0         0         0         0         0
         0         0         0         0         0         0         0         0
         0         0         0         0         0         0         0         0
         0         0         0         0         0         0         0         0
         0         0         0         0         0         0         0         0
         0         0         0         0         0         0         0         0
         0         0         0         0         0         0         0         0
         0         0         0         0         0         0         0         0
         0         0         0         0         0         0         0         0
         0         0         0         0         0         0         0         0
         0         0         0         0         0         0         0         0
         0         0         0         0         0         0         0         0
         0         0         0         0         0         0         0         0
         0         0         0         0         0         0         0         0
         0         0         0         0         0         0         0         0
         0         0         0         0         0         0         0         0
         0         0         0         0         0         0         0         0
         0         0         0         0         0         0         0         0
         0         0         0         0         0         0         0         0
         0         0         0         0         0         0         0         0
         0         0         0         0         0         0         0         0
         0         0         0         0         0         0         0         0
         0         0         0         0         0         0         0         0
         0         0         0         0         0         0         0         0
         0         0         0         0         0         0         0         0
         0         0         0         0         0         0         0         0
         0         0         0         0         0         0         0         0
         0         0         0         0         0         0         0         0
         0         0         0         0         0         0         0         0
         0         0         0         0         0         0         0         0
         0         0         0         0         0         0         0         0
         0         0         0         0         0         0         0         0
         0         0         0         0         0         0         0         0
         0         0         0         0         0         0         0         0
         0         0         0         0         0         0         0         0
         0         0         0         0         0         0         0         0
         0         0         0         0         0         0         0         0
         0         0         0         0         0         0         0         0
         0         0         0         0         0         0         0         0
         0         0         0         0         0         0         0         0
         0         0         0         0         0         0         0         0
         0         0         0         0         0         0         0         0
         0         0         0         0         0         0         0         0
         0         0         0         0         0         0         0         0
         0         0         0         0         0         0         0         0
         0         0         0         0         0         0         0         0
         0         0         0         0         0         0         0         0
         0         0         0         0         0         0         0         0
         0         0         0         0         0         0         0         0
         0         0         0         0         0         0         0         0
         0         0         0         0         0         0         0         0
         0         0         0         0         0         0         0         0
         0         0         0         0         0         0         0         0
         0         0         0         0         0         0         0         0
         0         0         0         0         0         0         0         0
         0         0         0         0         0         0         0         0
         0         0         0         0         0         0         0         0
         0         0         0         0         0         0         0         0
         0         0         0         0         0         0         0         0
         0         0         0         0         0         0         0         0
         0         0         0         0         0         0         0         0
         0         0         0         0         0         0         0         0
         0         0         0         0         0         0         0         0
         0         0         0         0         0         0         0         0
         0         0         0         0         0         0         0         0
         0         0         0         0         0         0         0         0
         0         0         0         0         0         0         0         0
         0         0         0         0         0         0         0         0
         0         0         0         0         0         0         0         0
         0         0         0         0         0         0         0         0
         0         0         0         0         0         0         0         0
         0         0         0         0         0         0         0         0
         0         0         0         0         0         0         0         0
         0         0         0         0         0         0         0         0
         0         0         0         0         0         0         0         0
         0         0         0         0         0         0         0         0
         0         0         0         0         0         0         0         0
         0         0         0         0         0         0         0         0
         0         0         0         0         0         0         0         0
         0         0         0         0         0         0         0         0
         0         0         0         0         0         0         0         0
         0         0         0         0         0         0         0         0
         0         0         0         0         0         0         0         0
         0         0         0         0         0         0         0         0
         0         0         0         0         0         0         0         0
         0         0         0         0         0         0         0         0
         0         0         0         0         0         0         0         0
         0         0         0         0         0         0         0         0
         0         0         0         0         0         0         0         0
         0         0         0         0         0         0         0         0
         0         0         0         0         0         0         0         0
         0         0         0         0         0         0         0         0
         0         0         0         0         0         0         0         0
         0         0         0         0         0         0         0         0
         0         0         0         0         0         0         0         0
         0         0         0         0         0         0         0         0
         0         0         0         0         0         0         0         0
         0         0         0         0         0         0         0         0
         0         0         0         0         0         0         0         0
         0         0         0         0         0         0         0         0
         0         0         0         0         0         0         0         0
         0         0         0         0         0         0         0         0
         0         0         0         0         0         0         0         0
         0         0         0         0         0         0         0         0
         0         0         0         0         0         0         0         0
         0         0         0         0         0         0         0         0
         0         0         0         0         0         0         0         0
         0         0         0         0         0         0         0         0
         0         0         0         0         0         0         0         0
         0         0         0         0         0         0         0         0
         0         0         0         0         0         0         0         0
         0         0         0         0         0         0         0         0
         0         0         0         0         0         0         0         0
         0         0         0         0         0         0         0         0
         0         0         0         0         0         0         0         0
         0         0         0         0         0         0         0         0
         0         0         0         0         0         0         0         0
         0         0         0         0         0         0         0         0
         0         0         0         0         0         0         0         0
         0         0         0         0         0         0         0         0
         0         0         0         0         0         0         0         0
         0         0         0         0         0         0         0         0
         0         0         0         0         0         0         0         0
         0         0         0         0         0         0         0         0
         0         0         0         0         0         0         0         0
         0         0         0         0         0         0         0         0
         0         0         0         0         0         0         0         0
         0         0         0         0         0         0         0         0
         0         0         0         0         0         0         0         0
         0         0         0         0         0         0         0         0
         0         0         0         0         0         0         0         0
         0         0         0         0         0         0         0         0
         0         0         0         0         0         0         0         0
         0         0         0         0         0         0         0         0
         0         0         0         0         0         0         0         0
         0         0         0         0         0         0         0         0
         0         0         0         0         0         0         0         0
         0         0         0         0         0         0         0         0
         0         0         0         0         0         0         0         0
         0         0         0         0         0         0         0         0
         0         0         0         0         0         0         0         0
         0         0         0         0         0         0         0         0
         0         0         0         0         0         0         0         0
         0         0         0         0         0         0         0         0
         0         0         0         0         0         0         0         0
         0         0         0         0         0         0         0         0
         0         0         0         0         0         0         0         0
         0         0         0         0         0         0         0         0
         0         0         0         0         0         0         0         0
         0         0         0         0         0         0         0         0
         0         0         0         0         0         0         0         0
         0         0         0         0         0         0         0         0
         0         0         0         0         0         0         0         0
         0         0         0         0         0         0         0         0
         0         0         0         0         0         0         0         0
         0         0         0         0         0         0         0         0
         0         0         0         0         0         0         0         0
         0         0         0         0         0         0         0         0
         0         0         0         0         0         0         0         0
         0         0         0         0         0         0         0         0
         0         0         0         0         0         0         0         0
         0         0         0         0         0         0         0         0
         0         0         0         0         0         0         0         0
         0         0         0         0         0         0         0         0
         0         0         0         0         0         0         0         0
         0         0         0         0         0         0         0         0
         0         0         0         0         0         0         0         0
         0         0         0         0         0         0         0         0
         0         0         0         0         0         0         0         0
         0         0         0         0         0         0         0         0
         0         0         0         0         0         0         0         0
         0         0         0         0         0         0         0         0
         0         0         0         0         0         0         0         0
         0         0         0         0         0         0         0         0
         0         0         0         0         0         0         0         0
         0         0         0         0         0         0         0         0
         0         0         0         0         0         0         0         0
         0         0         0         0         0         0         0         0
         0         0         0         0         0         0         0         0
         0         0         0         0         0         0         0         0
         0         0         0         0         0         0         0         0
         0         0         0         0         0         0         0         0
         0         0         0         0         0         0         0         0
         0         0         0         0         0         0         0         0
         0         0         0         0         0         0         0         0
         0         0         0         0         0         0         0         0
         0         0         0         0         0         0         0         0
         0         0         0         0         0         0         0         0
         0         0         0         0         0         0         0         0
         0         0         0         0         0         0         0         0
         0         0         0         0         0         0         0         0
         0         0         0         0         0         0         0         0
         0         0         0         0         0         0         0         0
         0         0         0         0         0         0         0         0
         0         0         0         0         0         0         0         0
         0         0         0         0         0         0         0         0
         0         0         0         0         0         0         0         0
         0         0         0         0         0         0         0         0
         0         0         0         0         0         0         0         0
         0         0         0         0         0         0         0         0
         0         0         0         0         0         0         0         0
         0         0         0         0         0         0         0         0
         0         0         0         0         0         0         0         0
         0         0         0         0         0         0         0         0
         0         0         0         0         0         0         0         0
         0         0         0         0         0         0         0         0
         0         0         0         0         0         0         0         0
         0         0         0         0         0         0         0         0
         0         0         0         0         0         0         0         0
         0         0         0         0         0         0         0         0
         0         0         0         0         0         0         0         0
         0         0         0         0         0         0         0         0
         0         0         0         0         0         0         0         0
         0         0         0         0         0         0         0         0
         0         0         0         0         0         0         0         0
         0         0         0         0         0         0         0         0
         0         0         0         0         0         0         0         0
         0         0         0         0         0         0         0         0
         0         0         0         0         0         0         0         0
         0         0         0         0         0         0         0         0
         0         0         0         0         0         0         0         0
         0         0         0         0         0         0         0         0
         0         0         0         0         0         0         0         0
         0         0         0         0         0         0         0         0
         0         0         0         0         0         0         0         0
         0         0         0         0         0         0         0         0
         0         0         0         0         0         0         0         0
         0         0         0         0         0         0         0         0
         0         0         0         0         0         0         0         0
         0         0         0         0         0         0         0         0
         0         0         0         0         0         0         0         0
         0         0         0         0         0         0         0         0
         0         0         0         0         0         0         0         0
         0         0         0         0         0         0         0         0
         0         0         0         0         0         0         0         0
         0         0         0         0         0         0         0         0
         0         0         0         0         0         0         0         0
         0         0         0         0         0         0         0         0
         0         0         0         0         0         0         0         0
         0         0         0         0         0         0         0         0
         0         0         0         0         0         0         0         0
         0         0         0         0         0         0         0         0
         0         0         0         0         0         0         0         0
         0         0         0         0         0         0         0         0
         0         0         0         0         0         0         0         0
         0         0         0         0         0         0         0         0
         0         0         0         0         0         0         0         0
         0         0         0         0         0         0         0         0
         0         0         0         0         0         0         0         0
         0         0         0         0         0         0         0         0
         0         0         0         0         0         0         0         0
         0         0         0         0         0         0         0         0
         0         0         0         0         0         0         0         0
         0         0         0         0         0         0         0         0
         0         0         0         0         0         0         0         0
         0         0         0         0         0         0         0         0
         0         0         0         0         0         0         0         0
         0         0         0         0         0         0         0         0
         0         0         0         0         0         0         0         0
         0         0         0         0         0         0         0         0
         0         0         0         0         0         0         0         0
         0         0         0         0         0         0         0         0
         0         0         0         0         0         0         0         0
         0         0         0         0         0         0         0         0
         0         0         0         0         0         0         0         0
         0         0         0         0         0         0         0         0
         0         0         0         0         0         0         0         0
         0         0         0         0         0         0         0         0
         0         0         0         0         0         0         0         0
         0         0         0         0         0         0         0         0
         0         0         0         0         0         0         0         0
         0         0         0         0         0         0         0         0
         0         0         0         0         0         0         0         0
         0         0         0         0         0         0         0         0
         0         0         0         0         0         0         0         0
         0         0         0         0         0         0         0         0
         0         0         0         0         0         0         0         0
         0         0         0         0         0         0         0         0
         0         0         0         0         0         0         0         0
         0         0         0         0         0         0         0         0
         0         0         0         0         0         0         0         0
         0         0         0         0         0         0         0         0
         0         0         0         0         0         0         0         0
         0         0         0         0         0         0         0         0
         0         0         0         0         0         0         0         0
         0         0         0         0         0         0         0         0
         0         0         0         0         0         0         0         0
         0         0         0         0         0         0         0         0
         0         0         0         0         0         0         0         0
         0         0         0         0         0         0         0         0
         0         0         0         0         0         0         0         0
         0         0         0         0         0         0         0         0
         0         0         0         0         0         0         0         0
         0         0         0         0         0         0         0         0
         0         0         0         0         0         0         0         0
         0         0         0         0         0         0         0         0
         0         0         0         0         0         0         0         0
         0         0         0         0         0         0         0         0
         0         0         0         0         0         0         0         0
         0         0         0         0         0         0         0         0
         0         0         0         0         0         0         0         0
         0         0         0         0         0         0         0         0
         0         0         0         0         0         0         0         0
         0         0         0         0         0         0         0         0
         0         0         0         0         0         0         0         0
         0         0         0         0         0         0         0         0
         0         0         0         0         0         0         0         0
         0         0         0         0         0         0         0         0
         0         0         0         0         0         0         0         0
         0         0         0         0         0         0         0         0
         0         0         0         0         0         0         0         0
         0         0         0         0         0         0         0         0
         0         0         0         0         0         0         0         0
         0         0         0         0         0         0         0         0
         0         0         0         0         0         0         0         0
         0         0         0         0         0         0         0         0
         0         0         0         0         0         0         0         0
         0         0         0         0         0         0         0         0
         0         0         0         0         0         0         0         0
         0         0         0         0         0         0         0         0
         0         0         0         0         0         0         0         0
         0         0         0         0         0         0         0         0
         0         0         0         0         0         0         0         0
         0         0         0         0         0         0         0         0
         0         0         0         0         0         0         0         0
         0         0         0         0         0         0         0         0
         0         0         0         0         0         0         0         0
         0         0         0         0         0         0         0         0
         0         0         0         0         0         0         0         0
         0         0         0         0         0         0         0         0
         0         0         0         0         0         0         0         0
         0         0         0         0         0         0         0         0
         0         0         0         0         0         0         0         0
         0         0         0         0         0         0         0         0
         0         0         0         0         0         0         0         0
         0         0         0         0         0         0         0         0
         0         0         0         0         0         0         0         0
         0         0         0         0         0         0         0         0
         0         0         0         0         0         0         0         0
         0         0         0         0         0         0         0         0
         0         0         0         0         0         0         0         0
         0         0         0         0         0         0         0         0
         0         0         0         0         0         0         0         0
         0         0         0         0         0         0         0         0
         0         0         0         0         0         0         0         0
         0         0         0         0         0         0         0         0
         0         0         0         0         0         0         0         0
         0         0         0         0         0         0         0         0
         0         0         0         0         0         0         0         0
         0         0         0         0         0         0         0         0
         0         0         0         0         0         0         0         0
         0         0         0         0         0         0         0         0
         0         0         0         0         0         0         0         0
         0         0         0         0         0         0         0         0
         0         0         0         0         0         0         0         0
         0         0         0         0         0         0         0         0
         0         0         0         0         0         0         0         0
         0         0         0         0         0         0         0         0
         0         0         0         0         0         0         0         0
         0         0         0         0         0         0         0         0
         0         0         0         0         0         0         0         0
         0         0         0         0         0         0         0         0
         0         0         0         0         0         0         0         0
         0         0         0         0         0         0         0         0
         0         0         0         0         0         0         0         0
         0         0         0         0         0         0         0         0
         0         0         0         0         0         0         0         0
         0         0         0         0         0         0         0         0
         0         0         0         0         0         0         0         0
         0         0         0         0         0         0         0         0
         0         0         0         0         0         0         0         0
         0         0         0         0         0         0         0         0
         0         0         0         0         0         0         0         0
         0         0         0         0         0         0         0         0
         0         0         0         0         0         0         0         0
         0         0         0         0         0         0         0         0
         0         0         0         0         0         0         0         0
         0         0         0         0         0         0         0         0
         0         0         0         0         0         0         0         0
         0         0         0         0         0         0         0         0
         0         0         0         0         0         0         0         0
         0         0         0         0         0         0         0         0
         0         0         0         0         0         0         0         0
         0         0         0         0         0         0         0         0
         0         0         0         0         0         0         0         0
         0         0         0         0         0         0         0         0
         0         0         0         0         0         0         0         0
         0         0         0         0         0         0         0         0
         0         0         0         0         0         0         0         0
         0         0         0         0         0         0         0         0
         0         0         0         0         0         0         0         0
         0         0         0         0         0         0         0         0
         0         0         0         0         0         0         0         0
         0         0         0         0         0         0         0         0
         0         0         0         0         0         0         0         0
         0         0         0         0         0         0         0         0
         0         0         0         0         0         0         0         0
         0         0         0         0         0         0         0         0
         0         0         0         0         0         0         0         0
         0         0         0         0         0         0         0         0
         0         0         0         0         0         0         0         0
         0         0         0         0         0         0         0         0
         0         0         0         0         0         0         0         0
         0         0         0         0         0         0         0         0
         0         0         0         0         0         0         0         0
         0         0         0         0         0         0         0         0
         0         0         0         0         0         0         0         0
         0         0         0         0         0         0         0         0
         0         0         0         0         0         0         0         0
         0         0         0         0         0         0         0         0
         0         0         0         0         0         0         0         0
         0         0         0         0         0         0         0         0
         0         0         0         0         0         0         0         0
         0         0         0         0         0         0         0         0
         0         0         0         0         0         0         0         0
         0         0         0         0         0         0         0         0
         0         0         0         0         0         0         0         0
         0         0         0         0         0         0         0         0
         0         0         0         0         0         0         0         0
         0         0         0         0         0         0         0         0
         0         0         0         0         0         0         0         0
         0         0         0         0         0         0         0         0
         0         0         0         0         0         0         0         0
         0         0         0         0         0         0         0         0
         0         0         0         0         0         0         0         0
         0         0         0         0         0         0         0         0
         0         0         0         0         0         0         0         0
         0         0         0         0         0         0         0         0
         0         0         0         0         0         0         0         0
         0         0         0         0         0         0         0         0
         0         0         0         0         0         0         0         0
         0         0         0         0         0         0         0         0
         0         0         0         0         0         0         0         0
         0         0         0         0         0         0         0         0
         0         0         0         0         0         0         0         0
         0         0         0         0         0         0         0         0
         0         0         0         0         0         0         0         0
         0         0         0         0         0         0         0         0
         0         0         0         0         0         0         0         0
         0         0         0         0         0         0         0         0
         0         0         0         0         0         0         0         0
         0         0         0         0         0         0         0         0
         0         0         0         0         0         0         0         0
         0         0         0         0         0         0         0         0
         0         0         0         0         0         0         0         0
         0         0         0         0         0         0         0         0
         0         0         0         0         0         0         0         0
         0         0         0         0         0         0         0         0
         0         0         0         0         0         0         0         0
         0         0         0         0         0         0         0         0
         0         0         0         0         0         0         0         0
         0         0         0         0         0         0         0         0
         0         0         0         0         0         0         0         0
         0         0         0         0         0         0         0         0
         0         0         0         0         0         0         0         0
         0         0         0         0         0         0         0         0
         0         0         0         0         0         0         0         0
         0         0         0         0         0         0         0         0
         0         0         0         0         0         0         0         0
         0         0         0         0         0         0         0         0
         0         0         0         0         0         0         0         0
         0         0         0         0         0         0         0         0
         0         0         0         0         0         0         0         0
         0         0         0         0         0         0         0         0
         0         0         0         0         0         0         0         0
         0         0         0         0         0         0         0         0
         0         0         0         0         0         0         0         0
         0         0         0         0         0         0         0         0
         0         0         0         0         0         0         0         0
         0         0         0         0         0         0         0         0
         0         0         0         0         0         0         0         0
         0         0         0         0         0         0         0         0
         0         0         0         0         0         0         0         0
         0         0         0         0         0         0         0         0
         0         0         0         0         0         0         0         0
         0         0         0         0         0         0         0         0
         0         0         0         0         0         0         0         0
         0         0         0         0         0         0         0         0
         0         0         0         0         0         0         0         0
         0         0         0         0         0         0         0         0
         0         0         0         0         0         0         0         0
         0         0         0         0         0         0         0         0
         0         0         0         0         0         0         0         0
         0         0         0         0         0         0         0         0
         0         0         0         0         0         0         0         0
         0         0         0         0         0         0         0         0
         0         0         0         0         0         0         0         0
         0         0         0         0         0         0         0         0
         0         0         0         0         0         0         0         0
         0         0         0         0         0         0         0         0
         0         0         0         0         0         0         0         0
         0         0         0         0         0         0         0         0
         0         0         0         0         0         0         0         0
         0         0         0         0         0         0         0         0
         0         0         0         0         0         0         0         0
         0         0         0         0         0         0         0         0
         0         0         0         0         0         0         0         0
         0         0         0         0         0         0         0         0
         0         0         0         0         0         0         0         0
         0         0         0         0         0         0         0         0
         0         0         0         0         0         0         0         0
         0         0         0         0         0         0         0         0
         0         0         0         0         0         0         0         0
         0         0         0         0         0         0         0         0
         0         0         0         0         0         0         0         0
         0         0         0         0         0         0         0         0
         0         0         0         0         0         0         0         0
         0         0         0         0         0         0         0         0
         0         0         0         0         0         0         0         0
         0         0         0         0         0         0         0         0
         0         0         0         0         0         0         0         0
         0         0         0         0         0         0         0         0
         0         0         0         0         0         0         0         0
         0         0         0         0         0         0         0         0
         0         0         0         0         0         0         0         0
         0         0         0         0         0         0         0         0
         0         0         0         0         0         0         0         0
         0         0         0         0         0         0         0         0
         0         0         0         0         0         0         0         0
         0         0         0         0         0         0         0         0
         0         0         0         0         0         0         0         0
         0         0         0         0         0         0         0         0
         0         0         0         0         0         0         0         0
         0         0         0         0         0         0         0         0
         0         0         0         0         0         0         0         0
         0         0         0         0         0         0         0         0
         0         0         0         0         0         0         0         0
         0         0         0         0         0         0         0         0
         0         0         0         0         0         0         0         0
         0         0         0         0         0         0         0         0
         0         0         0         0         0         0         0         0
         0         0         0         0         0         0         0         0
         0         0         0         0         0         0         0         0
         0         0         0         0         0         0         0         0
         0         0         0         0         0         0         0         0
         0         0         0         0         0         0         0         0
         0         0         0         0         0         0         0         0
         0         0         0         0         0         0         0         0
         0         0         0         0         0         0         0         0
         0         0         0         0         0         0         0         0
         0         0         0         0         0         0         0         0
         0         0         0         0         0         0         0         0
         0         0         0         0         0         0         0         0
         0         0         0         0         0         0         0         0
         0         0         0         0         0         0         0         0
         0         0         0         0         0         0         0         0
         0         0         0         0         0         0         0         0
         0         0         0         0         0         0         0         0
         0         0         0         0         0         0         0         0
         0         0         0         0         0         0         0         0
         0         0         0         0         0         0         0         0
         0         0         0         0         0         0         0         0
         0         0         0         0         0         0         0         0
         0         0         0         0         0         0         0         0
         0         0         0         0         0         0         0         0
         0         0         0         0         0         0         0         0
         0         0         0         0         0         0         0         0
         0         0         0         0         0         0         0         0
         0         0         0         0         0         0         0         0
         0         0         0         0         0         0         0         0
         0         0         0         0         0         0         0         0
         0         0         0         0         0         0         0         0
         0         0         0         0         0         0         0         0
         0         0         0         0         0         0         0         0
         0         0         0         0         0         0         0         0
         0         0         0         0         0         0         0         0
         0         0         0         0         0         0         0         0
         0         0         0         0         0         0         0         0
         0         0         0         0         0         0         0         0
         0         0         0         0         0         0         0         0
         0         0         0         0         0         0         0         0
         0         0         0         0         0         0         0         0
         0         0         0         0         0         0         0         0
         0         0         0         0         0         0         0         0
         0         0         0         0         0         0         0         0
         0         0         0         0         0         0         0         0
         0         0         0         0         0         0         0         0
         0         0         0         0         0         0         0         0
         0         0         0         0         0         0         0         0
         0         0         0         0         0         0         0         0
         0         0         0         0         0         0         0         0
         0         0         0         0         0         0         0         0
         0         0         0         0         0         0         0         0
         0         0         0         0         0         0         0         0
         0         0         0         0         0         0         0         0
         0         0         0         0         0         0         0         0
         0         0         0         0         0         0         0         0
         0         0         0         0         0         0         0         0
         0         0         0         0         0         0         0         0
         0         0         0         0         0         0         0         0
         0         0         0         0         0         0         0         0
         0         0         0         0         0         0         0         0
         0         0         0         0         0         0         0         0
         0         0         0         0         0         0         0         0
         0         0         0         0         0         0         0         0
         0         0         0         0         0         0         0         0
         0         0         0         0         0         0         0         0
         0         0         0         0         0         0         0         0
         0         0         0         0         0         0         0         0
         0         0         0         0         0         0         0         0
         0         0         0         0         0         0         0         0
         0         0         0         0         0         0         0         0
         0         0         0         0         0         0         0         0
         0         0         0         0         0         0         0         0
         0         0         0         0         0         0         0         0
         0         0         0         0         0         0         0         0
         0         0         0         0         0         0         0         0
         0         0         0         0         0         0         0         0
         0         0         0         0         0         0         0         0
         0         0         0         0         0         0         0         0
         0         0         0         0         0         0         0         0
         0         0         0         0         0         0         0         0
         0         0         0         0         0         0         0         0
         0         0         0         0         0         0         0         0
         0         0         0         0         0         0         0         0
         0         0         0         0         0         0         0         0
         0         0         0         0         0         0         0         0
         0         0         0         0         0         0         0         0
         0         0         0         0         0         0         0         0
         0         0         0         0         0         0         0         0
         0         0         0         0         0         0         0         0
         0         0         0         0         0         0         0         0
         0         0         0         0         0         0         0         0
         0         0         0         0         0         0         0         0
         0         0         0         0         0         0         0         0
         0         0         0         0         0         0         0         0
         0         0         0         0         0         0         0         0
         0         0         0         0         0         0         0         0
         0         0         0         0         0         0         0         0
         0         0         0         0         0         0         0         0
         0         0         0         0         0         0         0         0
         0         0         0         0         0         0         0         0
         0         0         0         0         0         0         0         0
         0         0         0         0         0         0         0         0
         0         0         0         0         0         0         0         0
         0         0         0         0         0         0         0         0
         0         0         0         0         0         0         0         0
         0         0         0         0         0         0         0         0
         0         0         0         0         0         0         0         0
         0         0         0         0         0         0         0         0
         0         0         0         0         0         0         0         0
         0         0         0         0         0         0         0         0
         0         0         0         0         0         0         0         0
         0         0         0         0         0         0         0         0
         0         0         0         0         0         0         0         0
         0         0         0         0         0         0         0         0
         0         0         0         0         0         0         0         0
         0         0         0         0         0         0         0         0
         0         0         0         0         0         0         0         0
         0         0         0         0         0         0         0         0
         0         0         0         0         0         0         0         0
         0         0         0         0         0         0         0         0
         0         0         0         0         0         0         0         0
         0         0         0         0         0         0         0         0
         0         0         0         0         0         0         0         0
         0         0         0         0         0         0         0         0
         0         0         0         0         0         0         0         0
         0         0         0         0         0         0         0         0
         0         0         0         0         0         0         0         0
         0         0         0         0         0         0         0         0
         0         0         0         0         0         0         0         0
         0         0         0         0         0         0         0         0
         0         0         0         0         0         0         0         0
         0         0         0         0         0         0         0         0
         0         0         0         0         0         0         0         0
         0         0         0         0         0         0         0         0
         0         0         0         0         0         0         0         0
         0         0         0         0         0         0         0         0
         0         0         0         0         0         0         0         0
         0         0         0         0         0         0         0         0
         0         0         0         0         0         0         0         0
         0         0         0         0         0         0         0         0
         0         0         0         0         0         0         0         0
         0         0         0         0         0         0         0         0
         0         0         0         0         0         0         0         0
         0         0         0         0         0         0         0         0
         0         0         0         0         0         0         0         0
         0         0         0         0         0         0         0         0
         0         0         0         0         0         0         0         0
         0         0         0         0         0         0         0         0
         0         0         0         0         0         0         0         0
         0         0         0         0         0         0         0         0
         0         0         0         0         0         0         0         0
         0         0         0         0         0         0         0         0
         0         0         0         0         0         0         0         0
         0         0         0         0         0         0         0         0
         0         0         0         0         0         0         0         0
         0         0         0         0         0         0         0         0
         0         0         0         0         0         0         0         0
         0         0         0         0         0         0         0         0
         0         0         0         0         0         0         0         0
         0         0         0         0         0         0         0         0
         0         0         0         0         0         0         0         0
         0         0         0         0         0         0         0         0
         0         0         0         0         0         0         0         0
         0         0         0         0         0         0         0         0
         0         0         0         0         0         0         0         0
         0         0         0         0         0         0         0         0
         0         0         0         0         0         0         0         0
         0         0         0         0         0         0         0         0
         0         0         0         0         0         0         0         0
         0         0         0         0         0         0         0         0
         0         0         0         0         0         0         0         0
         0         0         0         0         0         0         0         0
         0         0         0         0         0         0         0         0
         0         0         0         0         0         0         0         0
         0         0         0         0         0         0         0         0
         0         0         0         0         0         0         0         0
         0         0         0         0         0         0         0         0
         0         0         0         0         0         0         0         0
         0         0         0         0         0         0         0         0
         0         0         0         0         0         0         0         0
         0         0         0         0         0         0         0         0
         0         0         0         0         0         0         0         0
         0         0         0         0         0         0         0         0
         0         0         0         0         0         0         0         0
         0         0         0         0         0         0         0         0
         0         0         0         0         0         0         0         0
         0         0         0         0         0         0         0         0
         0         0         0         0         0         0         0         0
         0         0         0         0         0         0         0         0
         0         0         0         0         0         0         0         0
         0         0         0         0         0         0         0         0
         0         0         0         0         0         0         0         0
         0         0         0         0         0         0         0         0
         0         0         0         0         0         0         0         0
         0         0         0         0         0         0         0         0
         0         0         0         0         0         0         0         0
         0         0         0         0         0         0         0         0
         0         0         0         0         0         0         0         0
         0         0         0         0         0         0         0         0
         0         0         0         0         0         0         0         0
         0         0         0         0         0         0         0         0
         0         0         0         0         0         0         0         0
         0         0         0         0         0         0         0         0
         0         0         0         0         0         0         0         0
         0         0         0         0         0         0         0         0
         0         0         0         0         0         0         0         0
         0         0         0         0         0         0         0         0
         0         0         0         0         0         0         0         0
         0         0         0         0         0         0         0         0
         0         0         0         0         0         0         0         0
         0         0         0         0         0         0         0         0
         0         0         0         0         0         0         0         0
         0         0         0         0         0         0         0         0
         0         0         0         0         0         0         0         0
         0         0         0         0         0         0         0         0
         0         0         0         0         0         0         0         0
         0         0         0         0         0         0         0         0
         0         0         0         0         0         0         0         0
         0         0         0         0         0         0         0         0
         0         0         0         0         0         0         0         0
         0         0         0         0         0         0         0         0
         0         0         0         0         0         0         0         0
         0         0         0         0         0         0         0         0
         0         0         0         0         0         0         0         0
         0         0         0         0         0         0         0         0
         0         0         0         0         0         0         0         0
         0         0         0         0         0         0         0         0
         0         0         0         0         0         0         0         0
         0         0         0         0         0         0         0         0
         0         0         0         0         0         0         0         0
         0         0         0         0         0         0         0         0
         0         0         0         0         0         0         0         0
         0         0         0         0         0         0         0         0
         0         0         0         0         0         0         0         0
         0         0         0         0         0         0         0         0
         0         0         0         0         0         0         0         0
         0         0         0         0         0         0         0         0
         0         0         0         0         0         0         0         0
         0         0         0         0         0         0         0         0
         0         0         0         0         0         0         0         0
         0         0         0         0         0         0         0         0
         0         0         0         0         0         0         0         0
         0         0         0         0         0         0         0         0
         0         0         0         0         0         0         0         0
         0         0         0         0         0         0         0         0
         0         0         0         0         0         0         0         0
         0         0         0         0         0         0         0         0
         0         0         0         0         0         0         0         0
         0         0         0         0         0         0         0         0
         0         0         0         0         0         0         0         0
         0         0         0         0         0         0         0         0
         0         0         0         0         0         0         0         0
         0         0         0         0         0         0         0         0
         0         0         0         0         0         0         0         0
         0         0         0         0         0         0         0         0
         0         0         0         0         0         0         0         0
         0         0         0         0         0         0         0         0
         0         0         0         0         0         0         0         0
         0         0         0         0         0         0         0         0
         0         0         0         0         0         0         0         0
         0         0         0         0         0         0         0         0
         0         0         0         0         0         0         0         0
         0         0         0         0         0         0         0         0
         0         0         0         0         0         0         0         0
         0         0         0         0         0         0         0         0
         0         0         0         0         0         0         0         0
         0         0         0         0         0         0         0         0
         0         0         0         0         0         0         0         0
         0         0         0         0         0         0         0         0
         0         0         0         0         0         0         0         0
         0         0         0         0         0         0         0         0
         0         0         0         0         0         0         0         0
         0         0         0         0         0         0         0         0
         0         0         0         0         0         0         0         0
         0         0         0         0         0         0         0         0
         0         0         0         0         0         0         0         0
         0         0         0         0         0         0         0         0
         0         0         0         0         0         0         0         0
         0         0         0         0         0         0         0         0
         0         0         0         0         0         0         0         0
         0         0         0         0         0         0         0         0
         0         0         0         0         0         0         0         0
         0         0         0         0         0         0         0         0
         0         0         0         0         0         0         0         0
         0         0         0         0         0         0         0         0
         0         0         0         0         0         0         0         0
         0         0         0         0         0         0         0         0
         0         0         0         0         0         0         0         0
         0         0         0         0         0         0         0         0
         0         0         0         0         0         0         0         0
         0         0         0         0         0         0         0         0
         0         0         0         0         0         0         0         0
         0         0         0         0         0         0         0         0
         0         0         0         0         0         0         0         0
         0         0         0         0         0         0         0         0
         0         0         0         0         0         0         0         0
         0         0         0         0         0         0         0         0
         0         0         0         0         0         0         0         0
         0         0         0         0         0         0         0         0
         0         0         0         0         0         0         0         0
         0         0         0         0         0         0         0         0
         0         0         0         0         0         0         0         0
         0         0         0         0         0         0         0         0
         0         0         0         0         0         0         0         0
         0         0         0         0         0         0         0         0
         0         0         0         0         0         0         0         0
         0         0         0         0         0         0         0         0
         0         0         0         0         0         0         0         0
         0         0         0         0         0         0         0         0
         0         0         0         0         0         0         0         0
         0         0         0         0         0         0         0         0
         0         0         0         0         0         0         0         0
         0         0         0         0         0         0         0         0
         0         0         0         0         0         0         0         0
         0         0         0         0         0         0         0         0
         0         0         0         0         0         0         0         0
         0         0         0         0         0         0         0         0
         0         0         0         0         0         0         0         0
         0         0         0         0         0         0         0         0
         0         0         0         0         0         0         0         0
         0         0         0         0         0         0         0         0
         0         0         0         0         0         0         0         0
         0         0         0         0         0         0         0         0
         0         0         0         0         0         0         0         0
         0         0         0         0         0         0         0         0
         0         0         0         0         0         0         0         0
         0         0         0         0         0         0         0         0
         0         0         0         0         0         0         0         0
         0         0         0         0         0         0         0         0
         0         0         0         0         0         0         0         0
         0         0         0         0         0         0         0         0
         0         0         0         0         0         0         0         0
         0         0         0         0         0         0         0         0
         0         0         0         0         0         0         0         0
         0         0         0         0         0         0         0         0
         0         0         0         0         0         0         0         0
         0         0         0         0         0         0         0         0
         0         0         0         0         0         0         0         0
         0         0         0         0         0         0         0         0
         0         0         0         0         0         0         0         0
         0         0         0         0         0         0         0         0
         0         0         0         0         0         0         0         0
         0         0         0         0         0         0         0         0
         0         0         0         0         0         0         0         0
         0         0         0         0         0         0         0         0
         0         0         0         0         0         0         0         0
         0         0         0         0         0         0         0         0
         0         0         0         0         0         0         0         0
         0         0         0         0         0         0         0         0
         0         0         0         0         0         0         0         0
         0         0         0         0         0         0         0         0
         0         0         0         0         0         0         0         0
         0         0         0         0         0         0         0         0
         0         0         0         0         0         0         0         0
         0         0         0         0         0         0         0         0
         0         0         0         0         0         0         0         0
         0         0         0         0         0         0         0         0
         0         0         0         0         0         0         0         0
         0         0         0         0         0         0         0         0
         0         0         0         0         0         0         0         0
         0         0         0         0         0         0         0         0
         0         0         0         0         0         0         0         0
         0         0         0         0         0         0         0         0
         0         0         0         0         0         0         0         0
         0         0         0         0         0         0         0         0
         0         0         0         0         0         0         0         0
         0         0         0         0         0         0         0         0
         0         0         0         0         0         0         0         0
         0         0         0         0         0         0         0         0
         0         0         0         0         0         0         0         0
         0         0         0         0         0         0         0         0
         0         0         0         0         0         0         0         0
         0         0         0         0         0         0         0         0
         0         0         0         0         0         0         0         0
         0         0         0         0         0         0         0         0
         0         0         0         0         0         0         0         0
         0         0         0         0         0         0         0         0
         0         0         0         0         0         0         0         0
         0         0         0         0         0         0         0         0
         0         0         0         0         0         0         0         0
         0         0         0         0         0         0         0         0
         0         0         0         0         0         0         0         0
         0         0         0         0         0         0         0         0
         0         0         0         0         0         0         0         0
         0         0         0         0         0         0         0         0
         0         0         0         0         0         0         0         0
         0         0         0         0         0         0         0         0
         0         0         0         0         0         0         0         0
         0         0         0         0         0         0         0         0
         0         0         0         0         0         0         0         0
         0         0         0         0         0         0         0         0
         0         0         0         0         0         0         0         0
         0         0         0         0         0         0         0         0
         0         0         0         0         0         0         0         0
         0         0         0         0         0         0         0         0
         0         0         0         0         0         0         0         0
         0         0         0         0         0         0         0         0
         0         0         0         0         0         0         0         0
         0         0         0         0         0         0         0         0
         0         0         0         0         0         0         0         0
         0         0         0         0         0         0         0         0
         0         0         0         0         0         0         0         0
         0         0         0         0         0         0         0         0
         0         0         0         0         0         0         0         0
         0         0         0         0         0         0         0         0
         0         0         0         0         0         0         0         0
         0         0         0         0         0         0         0         0
         0         0         0         0         0         0         0         0
         0         0         0         0         0         0         0         0
         0         0         0         0         0         0         0         0
         0         0         0         0         0         0         0         0
         0         0         0         0         0         0         0         0
         0         0         0         0         0         0         0         0
         0         0         0         0         0         0         0         0
         0         0         0         0         0         0         0         0
         0         0         0         0         0         0         0         0
         0         0         0         0         0         0         0         0
         0         0         0         0         0         0         0         0
         0         0         0         0         0         0         0         0
         0         0         0         0         0         0         0         0
         0         0         0         0         0         0         0         0
         0         0         0         0         0         0         0         0
         0         0         0         0         0         0         0         0
         0         0         0         0         0         0         0         0
         0         0         0         0         0         0         0         0
         0         0         0         0         0         0         0         0
         0         0         0         0         0         0         0         0
         0         0         0         0         0         0         0         0
         0         0         0         0         0         0         0         0
         0         0         0         0         0         0         0         0
         0         0         0         0         0         0         0         0
         0         0         0         0         0         0         0         0
         0         0         0         0         0         0         0         0
         0         0         0         0         0         0         0         0
         0         0         0         0         0         0         0         0
         0         0         0         0         0         0         0         0
         0         0         0         0         0         0         0         0
         0         0         0         0         0         0         0         0
         0         0         0         0         0         0         0         0
         0         0         0         0         0         0         0         0
         0         0         0         0         0         0         0         0
         0         0         0         0         0         0         0         0
         0         0         0         0         0         0         0         0
         0         0         0         0         0         0         0         0
         0         0         0         0         0         0         0         0
         0         0         0         0         0         0         0         0
         0         0         0         0         0         0         0         0
         0         0         0         0         0         0         0         0
         0         0         0         0         0         0         0         0
         0         0         0         0         0         0         0         0
         0         0         0         0         0         0         0         0
         0         0         0         0         0         0         0         0
         0         0         0         0         0         0         0         0
         0         0         0         0         0         0         0         0
         0         0         0         0         0         0         0         0
         0         0         0         0         0         0         0         0
         0         0         0         0         0         0         0         0
         0         0         0         0         0         0         0         0
         0         0         0         0         0         0         0         0
         0         0         0         0         0         0         0         0
         0         0         0         0         0         0         0         0
         0         0         0         0         0         0         0         0
         0         0         0         0         0         0         0         0
         0         0         0         0         0         0         0         0
         0         0         0         0         0         0         0         0
         0         0         0         0         0         0         0         0
         0         0         0         0         0         0         0         0
         0         0         0         0         0         0         0         0
         0         0         0         0         0         0         0         0
         0         0         0         0         0         0         0         0
         0         0         0         0         0         0         0         0
         0         0         0         0         0         0         0         0
         0         0         0         0         0         0         0         0
         0         0         0         0         0         0         0         0
         0         0         0         0         0         0         0         0
         0         0         0         0         0         0         0         0
         0         0         0         0         0         0         0         0
         0         0         0         0         0         0         0         0
         0         0         0         0         0         0         0         0
         0         0         0         0         0         0         0         0
         0         0         0         0         0         0         0         0
         0         0         0         0         0         0         0         0
         0         0         0         0         0         0         0         0
         0         0         0         0         0         0         0         0
         0         0         0         0         0         0         0         0
         0         0         0         0         0         0         0         0
         0         0         0         0         0         0         0         0
         0         0         0         0         0         0         0         0
         0         0         0         0         0         0         0         0
         0         0         0         0         0         0         0         0
         0         0         0         0         0         0         0         0
         0         0         0         0         0         0         0         0
         0         0         0         0         0         0         0         0
         0         0         0         0         0         0         0         0
         0         0         0         0         0         0         0         0
         0         0         0         0         0         0         0         0
         0         0         0         0         0         0         0         0
         0         0         0         0         0         0         0         0
         0         0         0         0         0         0         0         0
         0         0         0         0         0         0         0         0
         0         0         0         0         0         0         0         0
         0         0         0         0         0         0         0         0
         0         0         0         0         0         0         0         0
         0         0         0         0         0         0         0         0
         0         0         0         0         0         0         0         0
         0         0         0         0         0         0         0         0
         0         0         0         0         0         0         0         0
         0         0         0         0         0         0         0         0
         0         0         0         0         0         0         0         0
         0         0         0         0         0         0         0         0
         0         0         0         0         0         0         0         0
         0         0         0         0         0         0         0         0
         0         0         0         0         0         0         0         0
         0         0         0         0         0         0         0         0
         0         0         0         0         0         0         0         0
         0         0         0         0         0         0         0         0
         0         0         0         0         0         0         0         0
         0         0         0         0         0         0         0         0
         0         0         0         0         0         0         0         0
         0         0         0         0         0         0         0         0
         0         0         0         0         0         0         0         0
         0         0         0         0         0         0         0         0
         0         0         0         0         0         0         0         0
         0         0         0         0         0         0         0         0
         0         0         0         0         0         0         0         0
         0         0         0         0         0         0         0         0
         0         0         0         0         0         0         0         0
         0         0         0         0         0         0         0         0
         0         0         0         0         0         0         0         0
         0         0         0         0         0         0         0         0
         0         0         0         0         0         0         0         0
         0         0         0         0         0         0         0         0
         0         0         0         0         0         0         0         0
         0         0         0         0         0         0         0         0
         0         0         0         0         0         0         0         0
         0         0         0         0         0         0         0         0
         0         0         0         0         0         0         0         0
         0         0         0         0         0         0         0         0
         0         0         0         0         0         0         0         0
         0         0         0         0         0         0         0         0
         0         0         0         0         0         0         0         0
         0         0         0         0         0         0         0         0
         0         0         0         0         0         0         0         0
         0         0         0         0         0         0         0         0
         0         0         0         0         0         0         0         0
         0         0         0         0         0         0         0         0
         0         0         0         0         0         0         0         0
         0         0         0         0         0         0         0         0
         0         0         0         0         0         0         0         0
         0         0         0         0         0         0         0         0
         0         0         0         0         0         0         0         0
         0         0         0         0         0         0         0         0
         0         0         0         0         0         0         0         0
         0         0         0         0         0         0         0         0
         0         0         0         0         0         0         0         0
         0         0         0         0         0         0         0         0
         0         0         0         0         0         0         0         0
         0         0         0         0         0         0         0         0
         0         0         0         0         0         0         0         0
         0         0         0         0         0         0         0         0
         0         0         0         0         0         0         0         0
         0         0         0         0         0         0         0         0
         0         0         0         0         0         0         0         0
         0         0         0         0         0         0         0         0
         0         0         0         0         0         0         0         0
         0         0         0         0         0         0         0         0
         0         0         0         0         0         0         0         0
         0         0         0         0         0         0         0         0
         0         0         0         0         0         0         0         0
         0         0         0         0         0         0         0         0
         0         0         0         0         0         0         0         0
         0         0         0         0         0         0         0         0
         0         0         0         0         0         0         0         0
         0         0         0         0         0         0         0         0
         0         0         0         0         0         0         0         0
         0         0         0         0         0         0         0         0
         0         0         0         0         0         0         0         0
         0         0         0         0         0         0         0         0
         0         0         0         0         0         0         0         0
         0         0         0         0         0         0         0         0
         0         0         0         0         0         0         0         0
         0         0         0         0         0         0         0         0
         0         0         0         0         0         0         0         0
         0         0         0         0         0         0         0         0
         0         0         0         0         0         0         0         0
         0         0         0         0         0         0         0         0
         0         0         0         0         0         0         0         0
         0         0         0         0         0         0         0         0
         0         0         0         0         0         0         0         0
         0         0         0         0         0         0         0         0
         0         0         0         0         0         0         0         0
         0         0         0         0         0         0         0         0
         0         0         0         0         0         0         0         0
         0         0         0         0         0         0         0         0
         0         0         0         0         0         0         0         0
         0         0         0         0         0         0         0         0
         0         0         0         0         0         0         0         0
         0         0         0         0         0         0         0         0
         0         0         0         0         0         0         0         0
         0         0         0         0         0         0         0         0
         0         0         0         0         0         0         0         0
         0         0         0         0         0         0         0         0
         0         0         0         0         0         0         0         0
         0         0         0         0         0         0         0         0
         0         0         0         0         0         0         0         0
         0         0         0         0         0         0         0         0
         0         0         0         0         0         0         0         0
         0         0         0         0         0         0         0         0
         0         0         0         0         0         0         0         0
         0         0         0         0         0         0         0         0
         0         0         0         0         0         0         0         0
         0         0         0         0         0         0         0         0
         0         0         0         0         0         0         0         0
         0         0         0         0         0         0         0         0
         0         0         0         0         0         0         0         0
         0         0         0         0         0         0         0         0
         0         0         0         0         0         0         0         0
         0         0         0         0         0         0         0         0
         0         0         0         0         0         0         0         0
         0         0         0         0         0         0         0         0
         0         0         0         0         0         0         0         0
         0         0         0         0         0         0         0         0
         0         0         0         0         0         0         0         0
         0         0         0         0         0         0         0         0
         0         0         0         0         0         0         0         0
         0         0         0         0         0         0         0         0
         0         0         0         0         0         0         0         0
         0         0         0         0         0         0         0         0
         0         0         0         0         0         0         0         0
         0         0         0         0         0         0         0         0
         0         0         0         0         0         0         0         0
         0         0         0         0         0         0         0         0
         0         0         0         0         0         0         0         0
         0         0         0         0         0         0         0         0
         0         0         0         0         0         0         0         0
         0         0         0         0         0         0         0         0
         0         0         0         0         0         0         0         0
         0         0         0         0         0         0         0         0
         0         0         0         0         0         0         0         0
         0         0         0         0         0         0         0         0
         0         0         0         0         0         0         0         0
         0         0         0         0         0         0         0         0
         0         0         0         0         0         0         0         0
         0         0         0         0         0         0         0         0
         0         0         0         0         0         0         0         0
         0         0         0         0         0         0         0         0
         0         0         0         0         0         0         0         0
         0         0         0         0         0         0         0         0
         0         0         0         0         0         0         0         0
         0         0         0         0         0         0         0         0
         0         0         0         0         0         0         0         0
         0         0         0         0         0         0         0         0
         0         0         0         0         0         0         0         0
         0         0         0         0         0         0         0         0
         0         0         0         0         0         0         0         0
         0         0         0         0         0         0         0         0
         0         0         0         0         0         0         0         0
         0         0         0         0         0         0         0         0
         0         0         0         0         0         0         0         0
         0         0         0         0         0         0         0         0
         0         0         0         0         0         0         0         0
         0         0         0         0         0         0         0         0
         0         0         0         0         0         0         0         0
         0         0         0         0         0         0         0         0
         0         0         0         0         0         0         0         0
         0         0         0         0         0         0         0         0
         0         0         0         0         0         0         0         0
         0         0         0         0         0         0         0         0
         0         0         0         0         0         0         0         0
         0         0         0         0         0         0         0         0
         0         0         0         0         0         0         0         0
         0         0         0         0         0         0         0         0
         0         0         0         0         0         0         0         0
         0         0         0         0         0         0         0         0
         0         0         0         0         0         0         0         0
         0         0         0         0         0         0         0         0
         0         0         0         0         0         0         0         0
         0         0         0         0         0         0         0         0
         0         0         0         0         0         0         0         0
         0         0         0         0         0         0         0         0
         0         0         0         0         0         0         0         0
         0         0         0         0         0         0         0         0
         0         0         0         0         0         0         0         0
         0         0         0         0         0         0         0         0
         0         0         0         0         0         0         0         0
         0         0         0         0         0         0         0         0
         0         0         0         0         0         0         0         0
         0         0         0         0         0         0         0         0
         0         0         0         0         0         0         0         0
         0         0         0         0         0         0         0         0
         0         0         0         0         0         0         0         0
         0         0         0         0         0         0         0         0
         0         0         0         0         0         0         0         0
         0         0         0         0         0         0         0         0
         0         0         0         0         0         0         0         0
         0         0         0         0         0         0         0         0
         0         0         0         0         0         0         0         0
         0         0         0         0         0         0         0         0
         0         0         0         0         0         0         0         0
         0         0         0         0         0         0         0         0
         0         0         0         0         0         0         0         0
         0         0         0         0         0         0         0         0
         0         0         0         0         0         0         0         0
         0         0         0         0         0         0         0         0
         0         0         0         0         0         0         0         0
         0         0         0         0         0         0         0         0
         0         0         0         0         0         0         0         0
         0         0         0         0         0         0         0         0
         0         0         0         0         0         0         0         0
         0         0         0         0         0         0         0         0
         0         0         0         0         0         0         0         0
         0         0         0         0         0         0         0         0
         0         0         0         0         0         0         0         0
         0         0         0         0         0         0         0         0
         0         0         0         0         0         0         0         0
         0         0         0         0         0         0         0         0
         0         0         0         0         0         0         0         0
         0         0         0         0         0         0         0         0
         0         0         0         0         0         0         0         0
         0         0         0         0         0         0         0         0
         0         0         0         0         0         0         0         0
         0         0         0         0         0         0         0         0
         0         0         0         0         0         0         0         0
         0         0         0         0         0         0         0         0
         0         0         0         0         0         0         0         0
         0         0         0         0         0         0         0         0
         0         0         0         0         0         0         0         0
         0         0         0         0         0         0         0         0
         0         0         0         0         0         0         0         0
         0         0         0         0         0         0         0         0
         0         0         0         0         0         0         0         0
         0         0         0         0         0         0         0         0
         0         0         0         0         0         0         0         0
         0         0         0         0         0         0         0         0
         0         0         0         0         0         0         0         0
         0         0         0         0         0         0         0         0
         0         0         0         0         0         0         0         0
         0         0         0         0         0         0         0         0
         0         0         0         0         0         0         0         0
         0         0         0         0         0         0         0         0
         0         0         0         0         0         0         0         0
         0         0         0         0         0         0         0         0
         0         0         0         0         0         0         0         0
         0         0         0         0         0         0         0         0
         0         0         0         0         0         0         0         0
         0         0         0         0         0         0         0         0
         0         0         0         0         0         0         0         0
         0         0         0         0         0         0         0         0
         0         0         0         0         0         0         0         0
         0         0         0         0         0         0         0         0
         0         0         0         0         0         0         0         0
         0         0         0         0         0         0         0         0
         0         0         0         0         0         0         0         0
         0         0         0         0         0         0         0         0
         0         0         0         0         0         0         0         0
         0         0         0         0         0         0         0         0
         0         0         0         0         0         0         0         0
         0         0         0         0         0         0         0         0
         0         0         0         0         0         0         0         0
         0         0         0         0         0         0         0         0
         0         0         0         0         0         0         0         0
         0         0         0         0         0         0         0         0
         0         0         0         0         0         0         0         0
         0         0         0         0         0         0         0         0
         0         0         0         0         0         0         0         0
         0         0         0         0         0         0         0         0
         0         0         0         0         0         0         0         0
         0         0         0         0         0         0         0         0
         0         0         0         0         0         0         0         0
         0         0         0         0         0         0         0         0
         0         0         0         0         0         0         0         0
         0         0         0         0         0         0         0         0
         0         0         0         0         0         0         0         0
         0         0         0         0         0         0         0         0
         0         0         0         0         0         0         0         0
         0         0         0         0         0         0         0         0
         0         0         0         0         0         0         0         0
         0         0         0         0         0         0         0         0
         0         0         0         0         0         0         0         0
         0         0         0         0         0         0         0         0
         0         0         0         0         0         0         0         0
         0         0         0         0         0         0         0         0
         0         0         0         0         0         0         0         0
         0         0         0         0         0         0         0         0
         0         0         0         0         0         0         0         0
         0         0         0         0         0         0         0         0
         0         0         0         0         0         0         0         0
         0         0         0         0         0         0         0         0
         0         0         0         0         0         0         0         0
         0         0         0         0         0         0         0         0
         0         0         0         0         0         0         0         0
         0         0         0         0         0         0         0         0
         0         0         0         0         0         0         0         0
         0         0         0         0         0         0         0         0
         0         0         0         0         0         0         0         0
         0         0         0         0         0         0         0         0
         0         0         0         0         0         0         0         0
         0         0         0         0         0         0         0         0
         0         0         0         0         0         0         0         0
         0         0         0         0         0         0         0         0
         0         0         0         0         0         0         0         0
         0         0         0         0         0         0         0         0
         0         0         0         0         0         0         0         0
         0         0         0         0         0         0         0         0
         0         0         0         0         0         0         0         0
         0         0         0         0         0         0         0         0
         0         0         0         0         0         0         0         0
         0         0         0         0         0         0         0         0
         0         0         0         0         0         0         0         0
         0         0         0         0         0         0         0         0
         0         0         0         0         0         0         0         0
         0         0         0         0         0         0         0         0
         0         0         0         0         0         0         0         0
         0         0         0         0         0         0         0         0
         0         0         0         0         0         0         0         0
         0         0         0         0         0         0         0         0
         0         0         0         0         0         0         0         0
         0         0         0         0         0         0         0         0
         0         0         0         0         0         0         0         0
         0         0         0         0         0         0         0         0
         0         0         0         0         0         0         0         0
         0         0         0         0         0         0         0         0
         0         0         0         0         0         0         0         0
         0         0         0         0         0         0         0         0
         0         0         0         0         0         0         0         0
         0         0         0         0         0         0         0         0
         0         0         0         0         0         0         0         0
         0         0         0         0         0         0         0         0
         0         0         0         0         0         0         0         0
         0         0         0         0         0         0         0         0
         0         0         0         0         0         0         0         0
         0         0         0         0         0         0         0         0
         0         0         0         0         0         0         0         0
         0         0         0         0         0         0         0         0
         0         0         0         0         0         0         0         0
         0         0         0         0         0         0         0         0
         0         0         0         0         0         0         0         0
         0         0         0         0         0         0         0         0
         0         0         0         0         0         0         0         0
         0         0         0         0         0         0         0         0
         0         0         0         0         0         0         0         0
         0         0         0         0         0         0         0         0
         0         0         0         0         0         0         0         0
         0         0         0         0         0         0         0         0
         0         0         0         0         0         0         0         0
         0         0         0         0         0         0         0         0
         0         0         0         0         0         0         0         0
         0         0         0         0         0         0         0         0
         0         0         0         0         0         0         0         0
         0         0         0         0         0         0         0         0
         0         0         0         0         0         0         0         0
         0         0         0         0         0         0         0         0
         0         0         0         0         0         0         0         0
         0         0         0         0         0         0         0         0
         0         0         0         0         0         0         0         0
         0         0         0         0         0         0         0         0
         0         0         0         0         0         0         0         0
         0         0         0         0         0         0         0         0
         0         0         0         0         0         0         0         0
         0         0         0         0         0         0         0         0
         0         0         0         0         0         0         0         0
         0         0         0         0         0         0         0         0
         0         0         0         0         0         0         0         0
         0         0         0         0         0         0         0         0
         0         0         0         0         0         0         0         0
         0         0         0         0         0         0         0         0
         0         0         0         0         0         0         0         0
         0         0         0         0         0         0         0         0
         0         0         0         0         0         0         0         0
         0         0         0         0         0         0         0         0
         0         0         0         0         0         0         0         0
         0         0         0         0         0         0         0         0
         0         0         0         0         0         0         0         0
         0         0         0         0         0         0         0         0
         0         0         0         0         0         0         0         0
         0         0         0         0         0         0         0         0
         0         0         0         0         0         0         0         0
         0         0         0         0         0         0         0         0
         0         0         0         0         0         0         0         0
         0         0         0         0         0         0         0         0
         0         0         0         0         0         0         0         0
         0         0         0         0         0         0         0         0
         0         0         0         0         0         0         0         0
         0         0         0         0         0         0         0         0
         0         0         0         0         0         0         0         0
         0         0         0         0         0         0         0         0
         0         0         0         0         0         0         0         0
         0         0         0         0         0         0         0         0
         0         0         0         0         0         0         0         0
         0         0         0         0         0         0         0         0
         0         0         0         0         0         0         0         0
         0         0         0         0         0         0         0         0
         0         0         0         0         0         0         0         0
         0         0         0         0         0         0         0         0
         0         0         0         0         0         0         0         0
         0         0         0         0         0         0         0         0
         0         0         0         0         0         0         0         0
         0         0         0         0         0         0         0         0
         0         0         0         0         0         0         0         0
         0         0         0         0         0         0         0         0
         0         0         0         0         0         0         0         0
         0         0         0         0         0         0         0         0
         0         0         0         0         0         0         0         0
         0         0         0         0         0         0         0         0
         0         0         0         0         0         0         0         0
         0         0         0         0         0         0         0         0
         0         0         0         0         0         0         0         0
         0         0         0         0         0         0         0         0
         0         0         0         0         0         0         0         0
         0         0         0         0         0         0         0         0
         0         0         0         0         0         0         0         0
         0         0         0         0         0         0         0         0
         0         0         0         0         0         0         0         0
         0         0         0         0         0         0         0         0
         0         0         0         0         0         0         0         0
         0         0         0         0         0         0         0         0
         0         0         0         0         0         0         0         0
         0         0         0         0         0         0         0         0
         0         0         0         0         0         0         0         0
         0         0         0         0         0         0         0         0
         0         0         0         0         0         0         0         0
         0         0         0         0         0         0         0         0
         0         0         0         0         0         0         0         0
         0         0         0         0         0         0         0         0
         0         0         0         0         0         0         0         0
         0         0         0         0         0         0         0         0
         0         0         0         0         0         0         0         0
         0         0         0         0         0         0         0         0
         0         0         0         0         0         0         0         0
         0         0         0         0         0         0         0         0
         0         0         0         0         0         0         0         0
         0         0         0         0         0         0         0         0
         0         0         0         0         0         0         0         0
         0         0         0         0         0         0         0         0
         0         0         0         0         0         0         0         0
         0         0         0         0         0         0         0         0
         0         0         0         0         0         0         0         0
         0         0         0         0         0         0         0         0
         0         0         0         0         0         0         0         0
         0         0         0         0         0         0         0         0
         0         0         0         0         0         0         0         0
         0         0         0         0         0         0         0         0
         0         0         0         0         0         0         0         0
         0         0         0         0         0         0         0         0
         0         0         0         0         0         0         0         0
         0         0         0         0         0         0         0         0
         0         0         0         0         0         0         0         0
         0         0         0         0         0         0         0         0
         0         0         0         0         0         0         0         0
         0         0         0         0         0         0         0         0
         0         0         0         0         0         0         0         0
         0         0         0         0         0         0         0         0
         0         0         0         0         0         0         0         0
         0         0         0         0         0         0         0         0
         0         0         0         0         0         0         0         0
         0         0         0         0         0         0         0         0
         0         0         0         0         0         0         0         0
         0         0         0         0         0         0         0         0
         0         0         0         0         0         0         0         0
         0         0         0         0         0         0         0         0
         0         0         0         0         0         0         0         0
         0         0         0         0         0         0         0         0
         0         0         0         0         0         0         0         0
         0         0         0         0         0         0         0         0
         0         0         0         0         0         0         0         0
         0         0         0         0         0         0         0         0
         0         0         0         0         0         0         0         0
         0         0         0         0         0         0         0         0
         0         0         0         0         0         0         0         0
         0         0         0         0         0         0         0         0
         0         0         0         0         0         0         0         0
         0         0         0         0         0         0         0         0
         0         0         0         0         0         0         0         0
         0         0         0         0         0         0         0         0
         0         0         0         0         0         0         0         0
         0         0         0         0         0         0         0         0
         0         0         0         0         0         0         0         0
         0         0         0         0         0         0         0         0
         0         0         0         0         0         0         0         0
         0         0         0         0         0         0         0         0
         0         0         0         0         0         0         0         0
         0         0         0         0         0         0         0         0
         0         0         0         0         0         0         0         0
         0         0         0         0         0         0         0         0
         0         0         0         0         0         0         0         0
         0         0         0         0         0         0         0         0
         0         0         0         0         0         0         0         0
         0         0         0         0         0         0         0         0
         0         0         0         0         0         0         0         0
         0         0         0         0         0         0         0         0
         0         0         0         0         0         0         0         0
         0         0         0         0         0         0         0         0
         0         0         0         0         0         0         0         0
         0         0         0         0         0         0         0         0
         0         0         0         0         0         0         0         0
         0         0         0         0         0         0         0         0
         0         0         0         0         0         0         0         0
         0         0         0         0         0         0         0         0
         0         0         0         0         0         0         0         0
         0         0         0         0         0         0         0         0
         0         0         0         0         0         0         0         0
         0         0         0         0         0         0         0         0
         0         0         0         0         0         0         0         0
         0         0         0         0         0         0         0         0
         0         0         0         0         0         0         0         0
         0         0         0         0         0         0         0         0
         0         0         0         0         0         0         0         0
         0         0         0         0         0         0         0         0
         0         0         0         0         0         0         0         0
         0         0         0         0         0         0         0         0
         0         0         0         0         0         0         0         0
         0         0         0         0         0         0         0         0
         0         0         0         0         0         0         0         0
         0         0         0         0         0         0         0         0
         0         0         0         0         0         0         0         0
         0         0         0         0         0         0         0         0
         0         0         0         0         0         0         0         0
         0         0         0         0         0         0         0         0
         0         0         0         0         0         0         0         0
         0         0         0         0         0         0         0         0
         0         0         0         0         0         0         0         0
         0         0         0         0         0         0         0         0
         0         0         0         0         0         0         0         0
         0         0         0         0         0         0         0         0
         0         0         0         0         0         0         0         0
         0         0         0         0         0         0         0         0
         0         0         0         0         0         0         0         0
         0         0         0         0         0         0         0         0
         0         0         0         0         0         0         0         0
         0         0         0         0         0         0         0         0
         0         0         0         0         0         0         0         0
         0         0         0         0         0         0         0         0
         0         0         0         0         0         0         0         0
         0         0         0         0         0         0         0         0
         0         0         0         0         0         0         0         0
         0         0         0         0         0         0         0         0
         0         0         0         0         0         0         0         0
         0         0         0         0         0         0         0         0
         0         0         0         0         0         0         0         0
         0         0         0         0         0         0         0         0
         0         0         0         0         0         0         0         0
         0         0         0         0         0         0         0         0
         0         0         0         0         0         0         0         0
         0         0         0         0         0         0         0         0
         0         0         0         0         0         0         0         0
         0         0         0         0         0         0         0         0
         0         0         0         0         0         0         0         0
         0         0         0         0         0         0         0         0
         0         0         0         0         0         0         0         0
         0         0         0         0         0         0         0         0
         0         0         0         0         0         0         0         0
         0         0         0         0         0         0         0         0
         0         0         0         0         0         0         0         0
         0         0         0         0         0         0         0         0
         0         0         0         0         0         0         0         0
         0         0         0         0         0         0         0         0
         0         0         0         0         0         0         0         0
         0         0         0         0         0         0         0         0
         0         0         0         0         0         0         0         0
         0         0         0         0         0         0         0         0
         0         0         0         0         0         0         0         0
         0         0         0         0         0         0         0         0
         0         0         0         0         0         0         0         0
         0         0         0         0         0         0         0         0
         0         0         0         0         0         0         0         0
         0         0         0         0         0         0         0         0
         0         0         0         0         0         0         0         0
         0         0         0         0         0         0         0         0
         0         0         0         0         0         0         0         0
         0         0         0         0         0         0         0         0
         0         0         0         0         0         0         0         0
         0         0         0         0         0         0         0         0
         0         0         0         0         0         0         0         0
         0         0         0         0         0         0         0         0
         0         0         0         0         0         0         0         0
         0         0         0         0         0         0         0         0
         0         0         0         0         0         0         0         0
         0         0         0         0         0         0         0         0
         0         0         0         0         0         0         0         0
         0         0         0         0         0         0         0         0
         0         0         0         0         0         0         0         0
         0         0         0         0         0         0         0         0
         0         0         0         0         0         0         0         0
         0         0         0         0         0         0         0         0
         0         0         0         0         0         0         0         0
         0         0         0         0         0         0         0         0
         0         0         0         0         0         0         0         0
         0         0         0         0         0         0         0         0
         0         0         0         0         0         0         0         0
         0         0         0         0         0         0         0         0
         0         0         0         0         0         0         0         0
         0         0         0         0         0         0         0         0
         0         0         0         0         0         0         0         0
         0         0         0         0         0         0         0         0
         0         0         0         0         0         0         0         0
         0         0         0         0         0         0         0         0
         0         0         0         0         0         0         0         0
         0         0         0         0         0         0         0         0
         0         0         0         0         0         0         0         0
         0         0         0         0         0         0         0         0
         0         0         0         0         0         0         0         0
         0         0         0         0         0         0         0         0
         0         0         0         0         0         0         0         0
         0         0         0         0         0         0         0         0
         0         0         0         0         0         0         0         0
         0         0         0         0         0         0         0         0
         0         0         0         0         0         0         0         0
         0         0         0         0         0         0         0         0
         0         0         0         0         0         0         0         0
         0         0         0         0         0         0         0         0
         0         0         0         0         0         0         0         0
         0         0         0         0         0         0         0         0
         0         0         0         0         0         0         0         0
         0         0         0         0         0         0         0         0
         0         0         0         0         0         0         0         0
         0         0         0         0         0         0         0         0
         0         0         0         0         0         0         0         0
         0         0         0         0         0         0         0         0
         0         0         0         0         0         0         0         0
         0         0         0         0         0         0         0         0
         0         0         0         0         0         0         0         0
         0         0         0         0         0         0         0         0
         0         0         0         0         0         0         0         0
         0         0         0         0         0         0         0         0
         0         0         0         0         0         0         0         0
         0         0         0         0         0         0         0         0
         0         0         0         0         0         0         0         0
         0         0         0         0         0         0         0         0
         0         0         0         0         0         0         0         0

         0         0 !NGRP NST2


         0         0 !NUMLP NUMLPH

         0 !NCRTERM: cross-terms

