Generated by CHARMM-GUI FF-Converter
23680
    1DPPC     N    1   2.054   2.452   8.186
    1DPPC   C13    2   1.908   2.431   8.213
    1DPPC  H13A    3   1.872   2.342   8.164
    1DPPC  H13B    4   1.856   2.519   8.178
    1DPPC  H13C    5   1.889   2.420   8.320
    1DPPC   C14    6   2.103   2.560   8.277
    1DPPC  H14A    7   2.042   2.651   8.264
    1DPPC  H14B    8   2.203   2.591   8.250
    1DPPC  H14C    9   2.096   2.530   8.380
    1DPPC   C15   10   2.125   2.325   8.217
    1DPPC  H15A   11   2.093   2.288   8.314
    1DPPC  H15B   12   2.232   2.335   8.221
    1DPPC  H15C   13   2.101   2.245   8.146
    1DPPC   C12   14   2.075   2.492   8.041
    1DPPC  H12A   15   2.041   2.414   7.975
    1DPPC  H12B   16   2.181   2.503   8.023
    1DPPC   C11   17   2.011   2.624   7.994
    1DPPC  H11A   18   1.902   2.626   8.014
    1DPPC  H11B   19   2.025   2.630   7.883
    1DPPC     P   20   2.098   2.869   7.988
    1DPPC   O13   21   2.176   2.957   8.078
    1DPPC   O14   22   1.963   2.913   7.942
    1DPPC   O11   23   2.190   2.815   7.867
    1DPPC   O12   24   2.076   2.732   8.062
    1DPPC    C1   25   2.322   2.770   7.910
    1DPPC    HA   26   2.318   2.708   8.002
    1DPPC    HB   27   2.383   2.860   7.934
    1DPPC    C2   28   2.407   2.689   7.806
    1DPPC    HS   29   2.514   2.694   7.839
    1DPPC   O21   30   2.395   2.743   7.674
    1DPPC   C21   31   2.457   2.858   7.656
    1DPPC   O22   32   2.525   2.919   7.737
    1DPPC   C22   33   2.430   2.907   7.514
    1DPPC   H2R   34   2.512   2.872   7.449
    1DPPC   H2S   35   2.433   3.018   7.516
    1DPPC    C3   36   2.373   2.536   7.797
    1DPPC    HX   37   2.388   2.492   7.898
    1DPPC    HY   38   2.453   2.496   7.729
    1DPPC   O31   39   2.240   2.504   7.747
    1DPPC   C31   40   2.233   2.391   7.677
    1DPPC   O32   41   2.318   2.304   7.675
    1DPPC   C32   42   2.102   2.391   7.599
    1DPPC   H2X   43   2.024   2.442   7.660
    1DPPC   H2Y   44   2.070   2.285   7.584
    1DPPC   C23   45   2.294   2.860   7.457
    1DPPC   H3R   46   2.212   2.891   7.526
    1DPPC   H3S   47   2.293   2.749   7.453
    1DPPC   C24   48   2.262   2.915   7.317
    1DPPC   H4R   49   2.250   3.025   7.325
    1DPPC   H4S   50   2.164   2.874   7.285
    1DPPC   C25   51   2.367   2.881   7.209
    1DPPC   H5R   52   2.461   2.938   7.230
    1DPPC   H5S   53   2.329   2.916   7.110
    1DPPC   C26   54   2.404   2.733   7.197
    1DPPC   H6R   55   2.453   2.700   7.292
    1DPPC   H6S   56   2.479   2.721   7.116
    1DPPC   C27   57   2.283   2.643   7.170
    1DPPC   H7R   58   2.237   2.670   7.072
    1DPPC   H7S   59   2.206   2.660   7.248
    1DPPC   C28   60   2.319   2.495   7.171
    1DPPC   H8R   61   2.227   2.434   7.180
    1DPPC   H8S   62   2.381   2.475   7.262
    1DPPC   C29   63   2.396   2.451   7.047
    1DPPC   H9R   64   2.465   2.369   7.073
    1DPPC   H9S   65   2.460   2.535   7.012
    1DPPC  C210   66   2.302   2.407   6.934
    1DPPC  H10R   67   2.201   2.451   6.949
    1DPPC  H10S   68   2.291   2.297   6.932
    1DPPC  C211   69   2.355   2.456   6.800
    1DPPC  H11R   70   2.461   2.424   6.787
    1DPPC  H11S   71   2.354   2.568   6.805
    1DPPC  C212   72   2.273   2.410   6.680
    1DPPC  H12R   73   2.168   2.446   6.692
    1DPPC  H12S   74   2.269   2.298   6.677
    1DPPC  C213   75   2.329   2.461   6.547
    1DPPC  H13R   76   2.249   2.455   6.470
    1DPPC  H13S   77   2.412   2.395   6.514
    1DPPC  C214   78   2.383   2.605   6.556
    1DPPC  H14R   79   2.470   2.606   6.625
    1DPPC  H14S   80   2.304   2.671   6.598
    1DPPC  C215   81   2.431   2.663   6.423
    1DPPC  H15R   82   2.345   2.670   6.352
    1DPPC  H15S   83   2.505   2.593   6.379
    1DPPC  C216   84   2.496   2.800   6.441
    1DPPC  H16R   85   2.546   2.833   6.347
    1DPPC  H16S   86   2.574   2.795   6.520
    1DPPC  H16T   87   2.421   2.876   6.470
    1DPPC   C33   88   2.118   2.462   7.464
    1DPPC   H3X   89   2.188   2.401   7.401
    1DPPC   H3Y   90   2.165   2.562   7.477
    1DPPC   C34   91   1.987   2.481   7.386
    1DPPC   H4X   92   1.925   2.388   7.391
    1DPPC   H4Y   93   2.016   2.498   7.280
    1DPPC   C35   94   1.905   2.602   7.432
    1DPPC   H5X   95   1.969   2.692   7.429
    1DPPC   H5Y   96   1.873   2.587   7.537
    1DPPC   C36   97   1.780   2.628   7.345
    1DPPC   H6X   98   1.735   2.723   7.380
    1DPPC   H6Y   99   1.707   2.546   7.363
    1DPPC   C37  100   1.805   2.638   7.193
    1DPPC   H7X  101   1.706   2.648   7.142
    1DPPC   H7Y  102   1.850   2.543   7.156
    1DPPC   C38  103   1.894   2.756   7.152
    1DPPC   H8X  104   1.981   2.762   7.221
    1DPPC   H8Y  105   1.837   2.851   7.162
    1DPPC   C39  106   1.950   2.746   7.009
    1DPPC   H9X  107   2.020   2.660   7.006
    1DPPC   H9Y  108   2.008   2.838   6.986
    1DPPC  C310  109   1.845   2.724   6.899
    1DPPC  H10X  110   1.768   2.804   6.902
    1DPPC  H10Y  111   1.793   2.627   6.917
    1DPPC  C311  112   1.911   2.719   6.761
    1DPPC  H11X  113   2.004   2.659   6.767
    1DPPC  H11Y  114   1.940   2.823   6.733
    1DPPC  C312  115   1.822   2.658   6.651
    1DPPC  H12X  116   1.730   2.719   6.640
    1DPPC  H12Y  117   1.791   2.557   6.685
    1DPPC  C313  118   1.893   2.644   6.515
    1DPPC  H13X  119   1.826   2.585   6.449
    1DPPC  H13Y  120   1.987   2.587   6.527
    1DPPC  C314  121   1.923   2.777   6.444
    1DPPC  H14X  122   1.848   2.854   6.475
    1DPPC  H14Y  123   1.911   2.762   6.334
    1DPPC  C315  124   2.066   2.828   6.468
    1DPPC  H15X  125   2.137   2.749   6.435
    1DPPC  H15Y  126   2.083   2.843   6.577
    1DPPC  C316  127   2.097   2.957   6.393
    1DPPC  H16X  128   2.092   2.939   6.284
    1DPPC  H16Y  129   2.199   2.994   6.419
    1DPPC  H16Z  130   2.023   3.035   6.420
    2DPPC     N  131   2.583   2.138   7.956
    2DPPC   C13  132   2.590   2.259   8.045
    2DPPC  H13A  133   2.623   2.227   8.145
    2DPPC  H13B  134   2.493   2.302   8.060
    2DPPC  H13C  135   2.658   2.334   8.008
    2DPPC   C14  136   2.488   2.039   8.017
    2DPPC  H14A  137   2.461   1.960   7.946
    2DPPC  H14B  138   2.395   2.083   8.052
    2DPPC  H14C  139   2.536   1.986   8.099
    2DPPC   C15  140   2.536   2.177   7.820
    2DPPC  H15A  141   2.437   2.222   7.822
    2DPPC  H15B  142   2.528   2.092   7.752
    2DPPC  H15C  143   2.603   2.248   7.774
    2DPPC   C12  144   2.721   2.075   7.947
    2DPPC  H12A  145   2.788   2.145   7.898
    2DPPC  H12B  146   2.715   1.988   7.884
    2DPPC   C11  147   2.789   2.027   8.077
    2DPPC  H11A  148   2.781   2.104   8.157
    2DPPC  H11B  149   2.898   2.014   8.057
    2DPPC     P  150   2.806   1.776   8.158
    2DPPC   O13  151   2.710   1.663   8.163
    2DPPC   O14  152   2.882   1.797   8.284
    2DPPC   O11  153   2.911   1.754   8.038
    2DPPC   O12  154   2.727   1.907   8.120
    2DPPC    C1  155   2.864   1.730   7.905
    2DPPC    HA  156   2.805   1.817   7.870
    2DPPC    HB  157   2.797   1.641   7.905
    2DPPC    C2  158   2.971   1.701   7.791
    2DPPC    HS  159   3.039   1.620   7.826
    2DPPC   O21  160   3.047   1.820   7.757
    2DPPC   C21  161   3.138   1.802   7.658
    2DPPC   O22  162   3.165   1.694   7.609
    2DPPC   C22  163   3.207   1.936   7.625
    2DPPC   H2R  164   3.309   1.913   7.588
    2DPPC   H2S  165   3.219   1.992   7.720
    2DPPC    C3  166   2.887   1.649   7.670
    2DPPC    HX  167   2.843   1.551   7.698
    2DPPC    HY  168   2.946   1.629   7.578
    2DPPC   O31  169   2.779   1.742   7.649
    2DPPC   C31  170   2.804   1.839   7.562
    2DPPC   O32  171   2.893   1.839   7.480
    2DPPC   C32  172   2.706   1.954   7.584
    2DPPC   H2X  173   2.766   2.045   7.604
    2DPPC   H2Y  174   2.641   1.934   7.671
    2DPPC   C23  175   3.132   2.025   7.522
    2DPPC   H3R  176   3.176   2.127   7.524
    2DPPC   H3S  177   3.026   2.034   7.553
    2DPPC   C24  178   3.139   1.975   7.375
    2DPPC   H4R  179   3.116   1.866   7.374
    2DPPC   H4S  180   3.242   1.988   7.336
    2DPPC   C25  181   3.038   2.048   7.284
    2DPPC   H5R  182   3.065   2.155   7.283
    2DPPC   H5S  183   2.936   2.039   7.329
    2DPPC   C26  184   3.029   1.997   7.139
    2DPPC   H6R  185   3.131   2.003   7.093
    2DPPC   H6S  186   2.963   2.066   7.081
    2DPPC   C27  187   2.975   1.854   7.123
    2DPPC   H7R  188   2.868   1.850   7.152
    2DPPC   H7S  189   3.030   1.788   7.194
    2DPPC   C28  190   2.996   1.796   6.982
    2DPPC   H8R  191   2.997   1.684   6.991
    2DPPC   H8S  192   3.096   1.828   6.947
    2DPPC   C29  193   2.892   1.833   6.875
    2DPPC   H9R  194   2.878   1.943   6.872
    2DPPC   H9S  195   2.794   1.787   6.901
    2DPPC  C210  196   2.939   1.784   6.737
    2DPPC  H10R  197   2.962   1.675   6.745
    2DPPC  H10S  198   3.033   1.837   6.712
    2DPPC  C211  199   2.842   1.805   6.620
    2DPPC  H11R  200   2.827   1.914   6.604
    2DPPC  H11S  201   2.743   1.758   6.643
    2DPPC  C212  202   2.897   1.742   6.490
    2DPPC  H12R  203   2.912   1.633   6.507
    2DPPC  H12S  204   2.997   1.788   6.469
    2DPPC  C213  205   2.809   1.762   6.365
    2DPPC  H13R  206   2.804   1.870   6.343
    2DPPC  H13S  207   2.707   1.725   6.388
    2DPPC  C214  208   2.862   1.693   6.239
    2DPPC  H14R  209   2.877   1.585   6.259
    2DPPC  H14S  210   2.960   1.738   6.213
    2DPPC  C215  211   2.770   1.707   6.117
    2DPPC  H15R  212   2.827   1.684   6.024
    2DPPC  H15S  213   2.736   1.813   6.110
    2DPPC  C216  214   2.649   1.614   6.124
    2DPPC  H16R  215   2.570   1.648   6.054
    2DPPC  H16S  216   2.607   1.614   6.227
    2DPPC  H16T  217   2.678   1.510   6.097
    2DPPC   C33  218   2.623   1.974   7.456
    2DPPC   H3X  219   2.528   1.916   7.463
    2DPPC   H3Y  220   2.680   1.935   7.369
    2DPPC   C34  221   2.588   2.120   7.428
    2DPPC   H4X  222   2.681   2.179   7.415
    2DPPC   H4Y  223   2.531   2.162   7.515
    2DPPC   C35  224   2.501   2.132   7.302
    2DPPC   H5X  225   2.468   2.238   7.289
    2DPPC   H5Y  226   2.411   2.069   7.318
    2DPPC   C36  227   2.572   2.084   7.175
    2DPPC   H6X  228   2.614   1.982   7.188
    2DPPC   H6Y  229   2.657   2.153   7.154
    2DPPC   C37  230   2.479   2.077   7.054
    2DPPC   H7X  231   2.432   2.175   7.038
    2DPPC   H7Y  232   2.397   2.004   7.072
    2DPPC   C38  233   2.558   2.038   6.929
    2DPPC   H8X  234   2.558   1.928   6.918
    2DPPC   H8Y  235   2.664   2.070   6.941
    2DPPC   C39  236   2.505   2.104   6.801
    2DPPC   H9X  237   2.522   2.214   6.806
    2DPPC   H9Y  238   2.396   2.087   6.790
    2DPPC  C310  239   2.581   2.047   6.682
    2DPPC  H10X  240   2.577   1.935   6.687
    2DPPC  H10Y  241   2.688   2.077   6.691
    2DPPC  C311  242   2.530   2.089   6.544
    2DPPC  H11X  243   2.528   2.200   6.535
    2DPPC  H11Y  244   2.426   2.051   6.528
    2DPPC  C312  245   2.625   2.030   6.440
    2DPPC  H12X  246   2.627   1.920   6.458
    2DPPC  H12Y  247   2.727   2.070   6.458
    2DPPC  C313  248   2.587   2.055   6.294
    2DPPC  H13X  249   2.677   2.038   6.231
    2DPPC  H13Y  250   2.555   2.160   6.281
    2DPPC  C314  251   2.477   1.959   6.247
    2DPPC  H14X  252   2.382   1.986   6.299
    2DPPC  H14Y  253   2.502   1.854   6.276
    2DPPC  C315  254   2.459   1.966   6.096
    2DPPC  H15X  255   2.511   1.881   6.048
    2DPPC  H15Y  256   2.508   2.058   6.058
    2DPPC  C316  257   2.311   1.969   6.058
    2DPPC  H16X  258   2.261   2.056   6.107
    2DPPC  H16Y  259   2.262   1.876   6.093
    2DPPC  H16Z  260   2.297   1.978   5.949
    3DPPC     N  261   1.630   1.748   8.058
    3DPPC   C13  262   1.720   1.669   7.969
    3DPPC  H13A  263   1.743   1.572   8.011
    3DPPC  H13B  264   1.815   1.720   7.956
    3DPPC  H13C  265   1.674   1.653   7.872
    3DPPC   C14  266   1.496   1.682   8.067
    3DPPC  H14A  267   1.442   1.683   7.974
    3DPPC  H14B  268   1.434   1.732   8.141
    3DPPC  H14C  269   1.504   1.580   8.104
    3DPPC   C15  270   1.690   1.746   8.195
    3DPPC  H15A  271   1.790   1.789   8.194
    3DPPC  H15B  272   1.699   1.645   8.233
    3DPPC  H15C  273   1.631   1.804   8.265
    3DPPC   C12  274   1.620   1.891   8.005
    3DPPC  H12A  275   1.571   1.953   8.079
    3DPPC  H12B  276   1.557   1.891   7.917
    3DPPC   C11  277   1.752   1.963   7.967
    3DPPC  H11A  278   1.726   2.061   7.922
    3DPPC  H11B  279   1.802   1.905   7.886
    3DPPC     P  280   1.983   1.936   8.092
    3DPPC   O13  281   1.983   1.809   8.170
    3DPPC   O14  282   2.057   2.049   8.152
    3DPPC   O11  283   2.029   1.908   7.944
    3DPPC   O12  284   1.833   1.984   8.081
    3DPPC    C1  285   2.098   1.999   7.861
    3DPPC    HA  286   2.195   2.028   7.907
    3DPPC    HB  287   2.036   2.091   7.845
    3DPPC    C2  288   2.126   1.934   7.722
    3DPPC    HS  289   2.235   1.910   7.717
    3DPPC   O21  290   2.083   2.024   7.618
    3DPPC   C21  291   2.148   2.010   7.502
    3DPPC   O22  292   2.256   1.954   7.488
    3DPPC   C22  293   2.064   2.070   7.388
    3DPPC   H2R  294   2.001   2.152   7.429
    3DPPC   H2S  295   1.997   1.990   7.351
    3DPPC    C3  296   2.046   1.801   7.709
    3DPPC    HX  297   1.940   1.827   7.729
    3DPPC    HY  298   2.078   1.732   7.790
    3DPPC   O31  299   2.052   1.741   7.578
    3DPPC   C31  300   2.122   1.627   7.567
    3DPPC   O32  301   2.185   1.574   7.656
    3DPPC   C32  302   2.103   1.566   7.428
    3DPPC   H2X  303   2.046   1.473   7.442
    3DPPC   H2Y  304   2.203   1.537   7.390
    3DPPC   C23  305   2.150   2.123   7.271
    3DPPC   H3R  306   2.202   2.038   7.221
    3DPPC   H3S  307   2.228   2.191   7.312
    3DPPC   C24  308   2.072   2.202   7.165
    3DPPC   H4R  309   2.145   2.242   7.090
    3DPPC   H4S  310   2.023   2.289   7.212
    3DPPC   C25  311   1.966   2.122   7.091
    3DPPC   H5R  312   1.886   2.097   7.164
    3DPPC   H5S  313   2.010   2.026   7.055
    3DPPC   C26  314   1.907   2.198   6.970
    3DPPC   H6R  315   1.958   2.163   6.878
    3DPPC   H6S  316   1.931   2.307   6.981
    3DPPC   C27  317   1.754   2.187   6.953
    3DPPC   H7R  318   1.727   2.221   6.851
    3DPPC   H7S  319   1.706   2.257   7.025
    3DPPC   C28  320   1.695   2.047   6.979
    3DPPC   H8R  321   1.586   2.050   6.956
    3DPPC   H8S  322   1.704   2.025   7.087
    3DPPC   C29  323   1.759   1.932   6.900
    3DPPC   H9R  324   1.869   1.942   6.895
    3DPPC   H9S  325   1.720   1.934   6.796
    3DPPC  C210  326   1.725   1.798   6.968
    3DPPC  H10R  327   1.625   1.808   7.015
    3DPPC  H10S  328   1.798   1.778   7.049
    3DPPC  C211  329   1.717   1.681   6.870
    3DPPC  H11R  330   1.659   1.712   6.781
    3DPPC  H11S  331   1.661   1.600   6.921
    3DPPC  C212  332   1.850   1.622   6.825
    3DPPC  H12R  333   1.911   1.592   6.913
    3DPPC  H12S  334   1.907   1.698   6.768
    3DPPC  C213  335   1.824   1.498   6.738
    3DPPC  H13R  336   1.769   1.533   6.648
    3DPPC  H13S  337   1.756   1.430   6.794
    3DPPC  C214  338   1.948   1.417   6.699
    3DPPC  H14R  339   1.914   1.324   6.648
    3DPPC  H14S  340   2.000   1.386   6.792
    3DPPC  C215  341   2.048   1.487   6.606
    3DPPC  H15R  342   2.127   1.415   6.578
    3DPPC  H15S  343   2.100   1.566   6.663
    3DPPC  C216  344   1.989   1.547   6.479
    3DPPC  H16R  345   1.932   1.468   6.427
    3DPPC  H16S  346   2.069   1.583   6.410
    3DPPC  H16T  347   1.920   1.631   6.500
    3DPPC   C33  348   2.032   1.658   7.326
    3DPPC   H3X  349   2.086   1.755   7.316
    3DPPC   H3Y  350   1.930   1.682   7.364
    3DPPC   C34  351   2.017   1.592   7.188
    3DPPC   H4X  352   1.945   1.653   7.129
    3DPPC   H4Y  353   1.973   1.491   7.201
    3DPPC   C35  354   2.147   1.582   7.106
    3DPPC   H5X  355   2.122   1.533   7.009
    3DPPC   H5Y  356   2.219   1.516   7.159
    3DPPC   C36  357   2.214   1.718   7.078
    3DPPC   H6X  358   2.255   1.757   7.174
    3DPPC   H6Y  359   2.137   1.790   7.041
    3DPPC   C37  360   2.329   1.709   6.976
    3DPPC   H7X  361   2.388   1.618   6.999
    3DPPC   H7Y  362   2.396   1.796   6.989
    3DPPC   C38  363   2.281   1.703   6.830
    3DPPC   H8X  364   2.190   1.639   6.828
    3DPPC   H8Y  365   2.359   1.654   6.768
    3DPPC   C39  366   2.249   1.840   6.766
    3DPPC   H9X  367   2.345   1.890   6.740
    3DPPC   H9Y  368   2.194   1.903   6.838
    3DPPC  C310  369   2.164   1.824   6.639
    3DPPC  H10X  370   2.077   1.763   6.669
    3DPPC  H10Y  371   2.220   1.767   6.561
    3DPPC  C311  372   2.107   1.953   6.577
    3DPPC  H11X  373   2.146   1.962   6.474
    3DPPC  H11Y  374   2.140   2.042   6.634
    3DPPC  C312  375   1.952   1.948   6.574
    3DPPC  H12X  376   1.914   1.979   6.673
    3DPPC  H12Y  377   1.918   1.843   6.557
    3DPPC  C313  378   1.888   2.033   6.464
    3DPPC  H13X  379   1.932   2.135   6.467
    3DPPC  H13Y  380   1.779   2.043   6.483
    3DPPC  C314  381   1.907   1.970   6.325
    3DPPC  H14X  382   1.819   1.908   6.298
    3DPPC  H14Y  383   1.995   1.902   6.327
    3DPPC  C315  384   1.932   2.075   6.218
    3DPPC  H15X  385   2.012   2.143   6.255
    3DPPC  H15Y  386   1.840   2.135   6.202
    3DPPC  C316  387   1.977   2.010   6.088
    3DPPC  H16X  388   2.064   1.945   6.108
    3DPPC  H16Y  389   2.005   2.085   6.011
    3DPPC  H16Z  390   1.897   1.944   6.049
    4DPPC     N  391   2.893   2.956   8.222
    4DPPC   C13  392   2.881   3.025   8.089
    4DPPC  H13A  393   2.910   2.955   8.009
    4DPPC  H13B  394   2.943   3.113   8.079
    4DPPC  H13C  395   2.779   3.051   8.067
    4DPPC   C14  396   3.035   2.915   8.241
    4DPPC  H14A  397   3.068   2.860   8.153
    4DPPC  H14B  398   3.045   2.850   8.326
    4DPPC  H14C  399   3.100   3.001   8.254
    4DPPC   C15  400   2.851   3.053   8.326
    4DPPC  H15A  401   2.888   3.152   8.300
    4DPPC  H15B  402   2.887   3.024   8.423
    4DPPC  H15C  403   2.742   3.059   8.330
    4DPPC   C12  404   2.800   2.836   8.225
    4DPPC  H12A  405   2.699   2.873   8.206
    4DPPC  H12B  406   2.801   2.796   8.325
    4DPPC   C11  407   2.825   2.722   8.124
    4DPPC  H11A  408   2.771   2.631   8.159
    4DPPC  H11B  409   2.934   2.697   8.124
    4DPPC     P  410   2.859   2.739   7.865
    4DPPC   O13  411   2.956   2.851   7.858
    4DPPC   O14  412   2.770   2.712   7.750
    4DPPC   O11  413   2.932   2.603   7.903
    4DPPC   O12  414   2.773   2.758   7.996
    4DPPC    C1  415   3.064   2.571   7.858
    4DPPC    HA  416   3.100   2.485   7.919
    4DPPC    HB  417   3.135   2.654   7.879
    4DPPC    C2  418   3.071   2.527   7.708
    4DPPC    HS  419   3.172   2.483   7.690
    4DPPC   O21  420   3.052   2.637   7.618
    4DPPC   C21  421   3.144   2.732   7.621
    4DPPC   O22  422   3.250   2.727   7.681
    4DPPC   C22  423   3.106   2.837   7.517
    4DPPC   H2R  424   3.161   2.930   7.542
    4DPPC   H2S  425   2.997   2.856   7.527
    4DPPC    C3  426   2.967   2.418   7.671
    4DPPC    HX  427   2.867   2.458   7.699
    4DPPC    HY  428   2.987   2.329   7.734
    4DPPC   O31  429   2.980   2.382   7.531
    4DPPC   C31  430   2.873   2.407   7.454
    4DPPC   O32  431   2.760   2.423   7.496
    4DPPC   C32  432   2.913   2.407   7.306
    4DPPC   H2X  433   2.906   2.303   7.270
    4DPPC   H2Y  434   3.018   2.442   7.298
    4DPPC   C23  435   3.141   2.789   7.375
    4DPPC   H3R  436   3.088   2.694   7.351
    4DPPC   H3S  437   3.251   2.768   7.373
    4DPPC   C24  438   3.112   2.892   7.266
    4DPPC   H4R  439   3.168   2.862   7.174
    4DPPC   H4S  440   3.149   2.991   7.298
    4DPPC   C25  441   2.964   2.905   7.228
    4DPPC   H5R  442   2.905   2.936   7.318
    4DPPC   H5S  443   2.926   2.806   7.195
    4DPPC   C26  444   2.946   3.008   7.116
    4DPPC   H6R  445   3.011   2.978   7.031
    4DPPC   H6S  446   2.984   3.106   7.153
    4DPPC   C27  447   2.801   3.026   7.067
    4DPPC   H7R  448   2.801   3.106   6.989
    4DPPC   H7S  449   2.739   3.063   7.151
    4DPPC   C28  450   2.735   2.901   7.007
    4DPPC   H8R  451   2.636   2.930   6.966
    4DPPC   H8S  452   2.717   2.827   7.089
    4DPPC   C29  453   2.815   2.830   6.896
    4DPPC   H9R  454   2.751   2.750   6.852
    4DPPC   H9S  455   2.904   2.781   6.941
    4DPPC  C210  456   2.863   2.923   6.784
    4DPPC  H10R  457   2.940   2.992   6.823
    4DPPC  H10S  458   2.778   2.984   6.746
    4DPPC  C211  459   2.923   2.844   6.667
    4DPPC  H11R  460   2.838   2.797   6.611
    4DPPC  H11S  461   2.988   2.762   6.704
    4DPPC  C212  462   3.003   2.934   6.572
    4DPPC  H12R  463   3.109   2.941   6.605
    4DPPC  H12S  464   2.960   3.037   6.578
    4DPPC  C213  465   2.994   2.890   6.427
    4DPPC  H13R  466   3.035   2.969   6.361
    4DPPC  H13S  467   2.887   2.875   6.401
    4DPPC  C214  468   3.069   2.761   6.393
    4DPPC  H14R  469   3.042   2.680   6.466
    4DPPC  H14S  470   3.178   2.777   6.400
    4DPPC  C215  471   3.027   2.717   6.253
    4DPPC  H15R  472   3.036   2.801   6.182
    4DPPC  H15S  473   2.919   2.692   6.258
    4DPPC  C216  474   3.103   2.596   6.200
    4DPPC  H16R  475   3.047   2.552   6.116
    4DPPC  H16S  476   3.113   2.519   6.278
    4DPPC  H16T  477   3.203   2.626   6.163
    4DPPC   C33  478   2.821   2.498   7.221
    4DPPC   H3X  479   2.830   2.603   7.257
    4DPPC   H3Y  480   2.714   2.468   7.236
    4DPPC   C34  481   2.852   2.493   7.071
    4DPPC   H4X  482   2.962   2.503   7.055
    4DPPC   H4Y  483   2.803   2.579   7.021
    4DPPC   C35  484   2.799   2.364   7.006
    4DPPC   H5X  485   2.688   2.364   7.013
    4DPPC   H5Y  486   2.835   2.277   7.064
    4DPPC   C36  487   2.840   2.343   6.860
    4DPPC   H6X  488   2.797   2.244   6.830
    4DPPC   H6Y  489   2.950   2.334   6.852
    4DPPC   C37  490   2.789   2.449   6.760
    4DPPC   H7X  491   2.868   2.525   6.744
    4DPPC   H7Y  492   2.701   2.501   6.802
    4DPPC   C38  493   2.748   2.384   6.627
    4DPPC   H8X  494   2.641   2.353   6.636
    4DPPC   H8Y  495   2.808   2.291   6.613
    4DPPC   C39  496   2.766   2.469   6.501
    4DPPC   H9X  497   2.875   2.490   6.487
    4DPPC   H9Y  498   2.713   2.566   6.510
    4DPPC  C310  499   2.713   2.392   6.378
    4DPPC  H10X  500   2.602   2.390   6.381
    4DPPC  H10Y  501   2.748   2.287   6.390
    4DPPC  C311  502   2.764   2.438   6.241
    4DPPC  H11X  503   2.745   2.354   6.169
    4DPPC  H11Y  504   2.874   2.451   6.246
    4DPPC  C312  505   2.699   2.564   6.180
    4DPPC  H12X  506   2.723   2.652   6.243
    4DPPC  H12Y  507   2.589   2.555   6.178
    4DPPC  C313  508   2.750   2.583   6.036
    4DPPC  H13X  509   2.701   2.508   5.971
    4DPPC  H13Y  510   2.859   2.561   6.033
    4DPPC  C314  511   2.730   2.722   5.975
    4DPPC  H14X  512   2.790   2.796   6.031
    4DPPC  H14Y  513   2.623   2.751   5.981
    4DPPC  C315  514   2.772   2.722   5.827
    4DPPC  H15X  515   2.702   2.656   5.771
    4DPPC  H15Y  516   2.874   2.678   5.819
    4DPPC  C316  517   2.773   2.861   5.765
    4DPPC  H16X  518   2.800   2.856   5.657
    4DPPC  H16Y  519   2.846   2.926   5.817
    4DPPC  H16Z  520   2.673   2.909   5.775
    5DPPC     N  521   2.471   1.327   8.240
    5DPPC   C13  522   2.611   1.293   8.280
    5DPPC  H13A  523   2.647   1.210   8.220
    5DPPC  H13B  524   2.615   1.262   8.384
    5DPPC  H13C  525   2.675   1.380   8.270
    5DPPC   C14  526   2.384   1.207   8.267
    5DPPC  H14A  527   2.408   1.162   8.362
    5DPPC  H14B  528   2.398   1.134   8.187
    5DPPC  H14C  529   2.279   1.232   8.261
    5DPPC   C15  530   2.425   1.440   8.324
    5DPPC  H15A  531   2.327   1.478   8.300
    5DPPC  H15B  532   2.494   1.526   8.320
    5DPPC  H15C  533   2.427   1.411   8.430
    5DPPC   C12  534   2.465   1.358   8.091
    5DPPC  H12A  535   2.529   1.442   8.070
    5DPPC  H12B  536   2.364   1.391   8.063
    5DPPC   C11  537   2.497   1.242   7.994
    5DPPC  H11A  538   2.592   1.194   8.024
    5DPPC  H11B  539   2.511   1.282   7.891
    5DPPC     P  540   2.263   1.156   7.911
    5DPPC   O13  541   2.165   1.066   7.978
    5DPPC   O14  542   2.298   1.136   7.769
    5DPPC   O11  543   2.227   1.307   7.941
    5DPPC   O12  544   2.394   1.144   7.998
    5DPPC    C1  545   2.139   1.352   8.042
    5DPPC    HA  546   2.190   1.355   8.140
    5DPPC    HB  547   2.052   1.283   8.049
    5DPPC    C2  548   2.088   1.495   8.007
    5DPPC    HS  549   2.008   1.525   8.079
    5DPPC   O21  550   2.035   1.492   7.871
    5DPPC   C21  551   1.923   1.419   7.863
    5DPPC   O22  552   1.851   1.397   7.959
    5DPPC   C22  553   1.891   1.383   7.716
    5DPPC   H2R  554   1.897   1.475   7.656
    5DPPC   H2S  555   1.785   1.348   7.716
    5DPPC    C3  556   2.200   1.605   8.022
    5DPPC    HX  557   2.214   1.624   8.131
    5DPPC    HY  558   2.158   1.698   7.979
    5DPPC   O31  559   2.329   1.571   7.965
    5DPPC   C31  560   2.401   1.672   7.918
    5DPPC   O32  561   2.370   1.790   7.925
    5DPPC   C32  562   2.530   1.621   7.854
    5DPPC   H2X  563   2.574   1.544   7.919
    5DPPC   H2Y  564   2.599   1.708   7.850
    5DPPC   C23  565   1.979   1.271   7.653
    5DPPC   H3R  566   1.988   1.186   7.725
    5DPPC   H3S  567   2.082   1.308   7.633
    5DPPC   C24  568   1.917   1.216   7.522
    5DPPC   H4R  569   1.898   1.300   7.452
    5DPPC   H4S  570   1.819   1.170   7.547
    5DPPC   C25  571   2.004   1.111   7.450
    5DPPC   H5R  572   2.030   1.032   7.524
    5DPPC   H5S  573   2.100   1.156   7.417
    5DPPC   C26  574   1.933   1.042   7.330
    5DPPC   H6R  575   1.824   1.041   7.350
    5DPPC   H6S  576   1.967   0.936   7.326
    5DPPC   C27  577   1.960   1.105   7.191
    5DPPC   H7R  578   1.942   1.215   7.197
    5DPPC   H7S  579   1.886   1.064   7.119
    5DPPC   C28  580   2.101   1.077   7.136
    5DPPC   H8R  581   2.116   0.967   7.129
    5DPPC   H8S  582   2.174   1.115   7.211
    5DPPC   C29  583   2.133   1.141   7.000
    5DPPC   H9R  584   2.244   1.143   6.989
    5DPPC   H9S  585   2.099   1.247   6.999
    5DPPC  C210  586   2.077   1.067   6.876
    5DPPC  H10R  587   1.967   1.082   6.871
    5DPPC  H10S  588   2.094   0.958   6.888
    5DPPC  C211  589   2.143   1.115   6.745
    5DPPC  H11R  590   2.253   1.105   6.751
    5DPPC  H11S  591   2.122   1.224   6.736
    5DPPC  C212  592   2.094   1.046   6.616
    5DPPC  H12R  593   1.988   1.014   6.628
    5DPPC  H12S  594   2.155   0.954   6.599
    5DPPC  C213  595   2.104   1.139   6.494
    5DPPC  H13R  596   2.171   1.223   6.520
    5DPPC  H13S  597   2.003   1.183   6.474
    5DPPC  C214  598   2.164   1.078   6.366
    5DPPC  H14R  599   2.103   0.992   6.331
    5DPPC  H14S  600   2.263   1.036   6.393
    5DPPC  C215  601   2.181   1.179   6.250
    5DPPC  H15R  602   2.201   1.123   6.156
    5DPPC  H15S  603   2.270   1.241   6.272
    5DPPC  C216  604   2.063   1.272   6.222
    5DPPC  H16R  605   1.973   1.213   6.197
    5DPPC  H16S  606   2.084   1.338   6.136
    5DPPC  H16T  607   2.041   1.335   6.310
    5DPPC   C33  608   2.511   1.568   7.710
    5DPPC   H3X  609   2.436   1.485   7.709
    5DPPC   H3Y  610   2.607   1.526   7.672
    5DPPC   C34  611   2.467   1.679   7.614
    5DPPC   H4X  612   2.540   1.760   7.616
    5DPPC   H4Y  613   2.372   1.723   7.651
    5DPPC   C35  614   2.443   1.630   7.470
    5DPPC   H5X  615   2.362   1.692   7.426
    5DPPC   H5Y  616   2.408   1.524   7.473
    5DPPC   C36  617   2.564   1.643   7.378
    5DPPC   H6X  618   2.652   1.679   7.435
    5DPPC   H6Y  619   2.542   1.720   7.300
    5DPPC   C37  620   2.603   1.513   7.308
    5DPPC   H7X  621   2.517   1.479   7.247
    5DPPC   H7Y  622   2.625   1.434   7.383
    5DPPC   C38  623   2.727   1.537   7.221
    5DPPC   H8X  624   2.817   1.535   7.286
    5DPPC   H8Y  625   2.721   1.638   7.176
    5DPPC   C39  626   2.743   1.437   7.107
    5DPPC   H9X  627   2.743   1.332   7.145
    5DPPC   H9Y  628   2.843   1.457   7.062
    5DPPC  C310  629   2.639   1.454   6.995
    5DPPC  H10X  630   2.633   1.563   6.970
    5DPPC  H10Y  631   2.538   1.422   7.029
    5DPPC  C311  632   2.680   1.378   6.869
    5DPPC  H11X  633   2.657   1.269   6.881
    5DPPC  H11Y  634   2.790   1.387   6.858
    5DPPC  C312  635   2.617   1.433   6.740
    5DPPC  H12X  636   2.683   1.401   6.656
    5DPPC  H12Y  637   2.617   1.544   6.741
    5DPPC  C313  638   2.476   1.379   6.711
    5DPPC  H13X  639   2.399   1.439   6.764
    5DPPC  H13Y  640   2.469   1.275   6.752
    5DPPC  C314  641   2.446   1.371   6.561
    5DPPC  H14X  642   2.352   1.314   6.547
    5DPPC  H14Y  643   2.527   1.313   6.510
    5DPPC  C315  644   2.431   1.507   6.492
    5DPPC  H15X  645   2.526   1.564   6.503
    5DPPC  H15Y  646   2.351   1.565   6.544
    5DPPC  C316  647   2.396   1.495   6.344
    5DPPC  H16X  648   2.394   1.595   6.296
    5DPPC  H16Y  649   2.295   1.449   6.331
    5DPPC  H16Z  650   2.470   1.431   6.292
    6DPPC     N  651   1.437   2.521   8.141
    6DPPC   C13  652   1.583   2.526   8.165
    6DPPC  H13A  653   1.623   2.430   8.197
    6DPPC  H13B  654   1.609   2.602   8.239
    6DPPC  H13C  655   1.633   2.558   8.075
    6DPPC   C14  656   1.365   2.470   8.262
    6DPPC  H14A  657   1.367   2.540   8.344
    6DPPC  H14B  658   1.401   2.374   8.294
    6DPPC  H14C  659   1.260   2.455   8.233
    6DPPC   C15  660   1.388   2.661   8.114
    6DPPC  H15A  661   1.441   2.706   8.031
    6DPPC  H15B  662   1.402   2.724   8.201
    6DPPC  H15C  663   1.282   2.660   8.092
    6DPPC   C12  664   1.411   2.433   8.019
    6DPPC  H12A  665   1.446   2.333   8.039
    6DPPC  H12B  666   1.467   2.473   7.936
    6DPPC   C11  667   1.266   2.422   7.967
    6DPPC  H11A  668   1.265   2.363   7.873
    6DPPC  H11B  669   1.235   2.526   7.944
    6DPPC     P  670   1.020   2.371   8.032
    6DPPC   O13  671   0.952   2.410   8.158
    6DPPC   O14  672   0.981   2.245   7.965
    6DPPC   O11  673   1.006   2.488   7.929
    6DPPC   O12  674   1.177   2.363   8.061
    6DPPC    C1  675   0.884   2.563   7.930
    6DPPC    HA  676   0.861   2.603   8.031
    6DPPC    HB  677   0.798   2.497   7.901
    6DPPC    C2  678   0.896   2.686   7.837
    6DPPC    HS  679   0.813   2.756   7.863
    6DPPC   O21  680   0.886   2.648   7.699
    6DPPC   C21  681   0.771   2.597   7.662
    6DPPC   O22  682   0.666   2.605   7.721
    6DPPC   C22  683   0.789   2.521   7.529
    6DPPC   H2R  684   0.722   2.571   7.456
    6DPPC   H2S  685   0.753   2.418   7.548
    6DPPC    C3  686   1.030   2.763   7.859
    6DPPC    HX  687   1.039   2.786   7.967
    6DPPC    HY  688   1.027   2.858   7.805
    6DPPC   O31  689   1.147   2.689   7.818
    6DPPC   C31  690   1.172   2.689   7.687
    6DPPC   O32  691   1.128   2.769   7.607
    6DPPC   C32  692   1.261   2.568   7.655
    6DPPC   H2X  693   1.195   2.480   7.644
    6DPPC   H2Y  694   1.326   2.551   7.743
    6DPPC   C23  695   0.933   2.515   7.473
    6DPPC   H3R  696   0.998   2.466   7.549
    6DPPC   H3S  697   0.972   2.618   7.457
    6DPPC   C24  698   0.945   2.433   7.342
    6DPPC   H4R  699   0.916   2.328   7.365
    6DPPC   H4S  700   1.052   2.431   7.310
    6DPPC   C25  701   0.861   2.483   7.224
    6DPPC   H5R  702   0.754   2.480   7.254
    6DPPC   H5S  703   0.874   2.412   7.138
    6DPPC   C26  704   0.893   2.625   7.175
    6DPPC   H6R  705   0.987   2.625   7.116
    6DPPC   H6S  706   0.909   2.691   7.263
    6DPPC   C27  707   0.776   2.682   7.094
    6DPPC   H7R  708   0.796   2.789   7.070
    6DPPC   H7S  709   0.686   2.682   7.159
    6DPPC   C28  710   0.743   2.604   6.966
    6DPPC   H8R  711   0.646   2.643   6.927
    6DPPC   H8S  712   0.724   2.497   6.990
    6DPPC   C29  713   0.848   2.611   6.854
    6DPPC   H9R  714   0.805   2.565   6.762
    6DPPC   H9S  715   0.936   2.550   6.884
    6DPPC  C210  716   0.897   2.753   6.823
    6DPPC  H10R  717   0.952   2.790   6.912
    6DPPC  H10S  718   0.810   2.819   6.805
    6DPPC  C211  719   0.994   2.763   6.704
    6DPPC  H11R  720   1.087   2.706   6.725
    6DPPC  H11S  721   1.022   2.871   6.694
    6DPPC  C212  722   0.935   2.718   6.570
    6DPPC  H12R  723   0.829   2.751   6.562
    6DPPC  H12S  724   0.937   2.607   6.564
    6DPPC  C213  725   1.013   2.778   6.453
    6DPPC  H13R  726   1.122   2.761   6.469
    6DPPC  H13S  727   0.996   2.889   6.453
    6DPPC  C214  728   0.973   2.721   6.317
    6DPPC  H14R  729   0.863   2.726   6.305
    6DPPC  H14S  730   1.003   2.614   6.313
    6DPPC  C215  731   1.040   2.798   6.202
    6DPPC  H15R  732   1.150   2.801   6.219
    6DPPC  H15S  733   1.002   2.903   6.204
    6DPPC  C216  734   1.010   2.735   6.066
    6DPPC  H16R  735   1.061   2.637   6.059
    6DPPC  H16S  736   1.046   2.797   5.982
    6DPPC  H16T  737   0.901   2.722   6.052
    6DPPC   C33  738   1.353   2.583   7.532
    6DPPC   H3X  739   1.409   2.678   7.540
    6DPPC   H3Y  740   1.428   2.500   7.536
    6DPPC   C34  741   1.285   2.574   7.395
    6DPPC   H4X  742   1.204   2.650   7.388
    6DPPC   H4Y  743   1.240   2.473   7.385
    6DPPC   C35  744   1.384   2.597   7.279
    6DPPC   H5X  745   1.476   2.537   7.295
    6DPPC   H5Y  746   1.413   2.704   7.281
    6DPPC   C36  747   1.326   2.564   7.140
    6DPPC   H6X  748   1.367   2.637   7.067
    6DPPC   H6Y  749   1.216   2.577   7.141
    6DPPC   C37  750   1.365   2.423   7.091
    6DPPC   H7X  751   1.319   2.346   7.156
    6DPPC   H7Y  752   1.476   2.414   7.100
    6DPPC   C38  753   1.328   2.396   6.944
    6DPPC   H8X  754   1.382   2.305   6.908
    6DPPC   H8Y  755   1.363   2.482   6.881
    6DPPC   C39  756   1.177   2.376   6.922
    6DPPC   H9X  757   1.123   2.457   6.975
    6DPPC   H9Y  758   1.145   2.279   6.967
    6DPPC  C310  759   1.136   2.381   6.774
    6DPPC  H10X  760   1.178   2.474   6.729
    6DPPC  H10Y  761   1.025   2.388   6.767
    6DPPC  C311  762   1.178   2.259   6.690
    6DPPC  H11X  763   1.126   2.169   6.731
    6DPPC  H11Y  764   1.287   2.241   6.700
    6DPPC  C312  765   1.140   2.273   6.542
    6DPPC  H12X  766   1.032   2.296   6.535
    6DPPC  H12Y  767   1.158   2.176   6.491
    6DPPC  C313  768   1.216   2.383   6.465
    6DPPC  H13X  769   1.191   2.483   6.507
    6DPPC  H13Y  770   1.181   2.382   6.359
    6DPPC  C314  771   1.368   2.363   6.466
    6DPPC  H14X  772   1.391   2.260   6.432
    6DPPC  H14Y  773   1.405   2.372   6.571
    6DPPC  C315  774   1.443   2.463   6.379
    6DPPC  H15X  775   1.422   2.566   6.416
    6DPPC  H15Y  776   1.405   2.458   6.275
    6DPPC  C316  777   1.594   2.439   6.379
    6DPPC  H16X  778   1.634   2.446   6.483
    6DPPC  H16Y  779   1.645   2.514   6.316
    6DPPC  H16Z  780   1.617   2.338   6.340
    7DPPC     N  781   2.455   3.437   8.306
    7DPPC   C13  782   2.572   3.417   8.215
    7DPPC  H13A  783   2.542   3.348   8.134
    7DPPC  H13B  784   2.659   3.376   8.264
    7DPPC  H13C  785   2.600   3.508   8.163
    7DPPC   C14  786   2.403   3.301   8.344
    7DPPC  H14A  787   2.475   3.239   8.396
    7DPPC  H14B  788   2.375   3.249   8.253
    7DPPC  H14C  789   2.313   3.308   8.405
    7DPPC   C15  790   2.496   3.512   8.428
    7DPPC  H15A  791   2.415   3.527   8.499
    7DPPC  H15B  792   2.542   3.607   8.403
    7DPPC  H15C  793   2.571   3.453   8.480
    7DPPC   C12  794   2.349   3.512   8.227
    7DPPC  H12A  795   2.400   3.578   8.158
    7DPPC  H12B  796   2.289   3.572   8.294
    7DPPC   C11  797   2.254   3.430   8.135
    7DPPC  H11A  798   2.194   3.501   8.073
    7DPPC  H11B  799   2.183   3.375   8.200
    7DPPC     P  800   2.400   3.383   7.921
    7DPPC   O13  801   2.321   3.353   7.799
    7DPPC   O14  802   2.540   3.332   7.925
    7DPPC   O11  803   2.408   3.540   7.945
    7DPPC   O12  804   2.325   3.337   8.053
    7DPPC    C1  805   2.494   3.615   7.859
    7DPPC    HA  806   2.564   3.552   7.799
    7DPPC    HB  807   2.558   3.681   7.921
    7DPPC    C2  808   2.413   3.704   7.759
    7DPPC    HS  809   2.350   3.772   7.820
    7DPPC   O21  810   2.335   3.627   7.668
    7DPPC   C21  811   2.211   3.595   7.699
    7DPPC   O22  812   2.154   3.620   7.804
    7DPPC   C22  813   2.149   3.525   7.576
    7DPPC   H2R  814   2.070   3.458   7.617
    7DPPC   H2S  815   2.227   3.462   7.529
    7DPPC    C3  816   2.511   3.787   7.672
    7DPPC    HX  817   2.561   3.861   7.737
    7DPPC    HY  818   2.456   3.841   7.592
    7DPPC   O31  819   2.611   3.698   7.619
    7DPPC   C31  820   2.575   3.629   7.511
    7DPPC   O32  821   2.502   3.668   7.422
    7DPPC   C32  822   2.649   3.495   7.514
    7DPPC   H2X  823   2.693   3.486   7.614
    7DPPC   H2Y  824   2.730   3.496   7.440
    7DPPC   C23  825   2.085   3.622   7.473
    7DPPC   H3R  826   2.019   3.692   7.530
    7DPPC   H3S  827   2.019   3.565   7.403
    7DPPC   C24  828   2.185   3.706   7.390
    7DPPC   H4R  829   2.279   3.721   7.446
    7DPPC   H4S  830   2.144   3.808   7.379
    7DPPC   C25  831   2.214   3.660   7.246
    7DPPC   H5R  832   2.142   3.581   7.216
    7DPPC   H5S  833   2.317   3.619   7.243
    7DPPC   C26  834   2.205   3.776   7.144
    7DPPC   H6R  835   2.274   3.858   7.175
    7DPPC   H6S  836   2.102   3.816   7.152
    7DPPC   C27  837   2.231   3.739   6.997
    7DPPC   H7R  838   2.178   3.815   6.935
    7DPPC   H7S  839   2.187   3.640   6.972
    7DPPC   C28  840   2.380   3.744   6.958
    7DPPC   H8R  841   2.436   3.660   7.005
    7DPPC   H8S  842   2.422   3.839   6.999
    7DPPC   C29  843   2.405   3.747   6.805
    7DPPC   H9R  844   2.496   3.809   6.790
    7DPPC   H9S  845   2.322   3.801   6.753
    7DPPC  C210  846   2.429   3.610   6.741
    7DPPC  H10R  847   2.331   3.561   6.721
    7DPPC  H10S  848   2.484   3.546   6.814
    7DPPC  C211  849   2.514   3.616   6.612
    7DPPC  H11R  850   2.607   3.673   6.634
    7DPPC  H11S  851   2.459   3.670   6.532
    7DPPC  C212  852   2.561   3.479   6.561
    7DPPC  H12R  853   2.474   3.420   6.526
    7DPPC  H12S  854   2.608   3.423   6.645
    7DPPC  C213  855   2.664   3.487   6.445
    7DPPC  H13R  856   2.698   3.384   6.423
    7DPPC  H13S  857   2.753   3.546   6.477
    7DPPC  C214  858   2.603   3.549   6.318
    7DPPC  H14R  859   2.616   3.659   6.317
    7DPPC  H14S  860   2.494   3.529   6.322
    7DPPC  C215  861   2.653   3.487   6.186
    7DPPC  H15R  862   2.569   3.498   6.113
    7DPPC  H15S  863   2.669   3.378   6.199
    7DPPC  C216  864   2.775   3.550   6.121
    7DPPC  H16R  865   2.796   3.500   6.024
    7DPPC  H16S  866   2.865   3.541   6.186
    7DPPC  H16T  867   2.757   3.657   6.098
    7DPPC   C33  868   2.559   3.371   7.496
    7DPPC   H3X  869   2.463   3.384   7.550
    7DPPC   H3Y  870   2.610   3.283   7.540
    7DPPC   C34  871   2.536   3.345   7.348
    7DPPC   H4X  872   2.633   3.332   7.295
    7DPPC   H4Y  873   2.487   3.435   7.304
    7DPPC   C35  874   2.450   3.221   7.323
    7DPPC   H5X  875   2.370   3.216   7.399
    7DPPC   H5Y  876   2.513   3.130   7.334
    7DPPC   C36  877   2.386   3.226   7.184
    7DPPC   H6X  878   2.343   3.128   7.157
    7DPPC   H6Y  879   2.464   3.250   7.108
    7DPPC   C37  880   2.273   3.328   7.179
    7DPPC   H7X  881   2.319   3.429   7.175
    7DPPC   H7Y  882   2.212   3.322   7.272
    7DPPC   C38  883   2.182   3.312   7.057
    7DPPC   H8X  884   2.107   3.394   7.058
    7DPPC   H8Y  885   2.128   3.215   7.064
    7DPPC   C39  886   2.260   3.318   6.927
    7DPPC   H9X  887   2.336   3.237   6.925
    7DPPC   H9Y  888   2.314   3.415   6.921
    7DPPC  C310  889   2.172   3.301   6.803
    7DPPC  H10X  890   2.112   3.394   6.789
    7DPPC  H10Y  891   2.101   3.217   6.817
    7DPPC  C311  892   2.259   3.273   6.680
    7DPPC  H11X  893   2.307   3.173   6.691
    7DPPC  H11Y  894   2.342   3.347   6.680
    7DPPC  C312  895   2.186   3.281   6.546
    7DPPC  H12X  896   2.112   3.198   6.539
    7DPPC  H12Y  897   2.262   3.265   6.466
    7DPPC  C313  898   2.113   3.414   6.523
    7DPPC  H13X  899   2.177   3.498   6.561
    7DPPC  H13Y  900   2.019   3.415   6.582
    7DPPC  C314  901   2.081   3.442   6.376
    7DPPC  H14X  902   2.012   3.530   6.371
    7DPPC  H14Y  903   2.027   3.355   6.333
    7DPPC  C315  904   2.206   3.476   6.293
    7DPPC  H15X  905   2.269   3.385   6.283
    7DPPC  H15Y  906   2.265   3.552   6.348
    7DPPC  C316  907   2.174   3.530   6.154
    7DPPC  H16X  908   2.109   3.459   6.098
    7DPPC  H16Y  909   2.267   3.545   6.095
    7DPPC  H16Z  910   2.121   3.627   6.161
    8DPPC     N  911   1.741   3.283   7.932
    8DPPC   C13  912   1.866   3.302   8.012
    8DPPC  H13A  913   1.837   3.313   8.116
    8DPPC  H13B  914   1.916   3.394   7.981
    8DPPC  H13C  915   1.932   3.217   8.001
    8DPPC   C14  916   1.781   3.289   7.789
    8DPPC  H14A  917   1.827   3.385   7.767
    8DPPC  H14B  918   1.698   3.273   7.722
    8DPPC  H14C  919   1.855   3.211   7.770
    8DPPC   C15  920   1.683   3.148   7.960
    8DPPC  H15A  921   1.664   3.141   8.067
    8DPPC  H15B  922   1.749   3.067   7.930
    8DPPC  H15C  923   1.585   3.138   7.914
    8DPPC   C12  924   1.638   3.388   7.972
    8DPPC  H12A  925   1.543   3.367   7.922
    8DPPC  H12B  926   1.669   3.486   7.936
    8DPPC   C11  927   1.606   3.407   8.124
    8DPPC  H11A  928   1.518   3.474   8.133
    8DPPC  H11B  929   1.691   3.462   8.169
    8DPPC     P  930   1.445   3.225   8.224
    8DPPC   O13  931   1.351   3.335   8.255
    8DPPC   O14  932   1.460   3.112   8.319
    8DPPC   O11  933   1.409   3.164   8.082
    8DPPC   O12  934   1.590   3.284   8.196
    8DPPC    C1  935   1.276   3.173   8.030
    8DPPC    HA  936   1.203   3.222   8.099
    8DPPC    HB  937   1.237   3.070   8.013
    8DPPC    C2  938   1.271   3.253   7.897
    8DPPC    HS  939   1.171   3.238   7.850
    8DPPC   O21  940   1.375   3.213   7.806
    8DPPC   C21  941   1.359   3.092   7.759
    8DPPC   O22  942   1.267   3.015   7.783
    8DPPC   C22  943   1.471   3.068   7.660
    8DPPC   H2R  944   1.569   3.081   7.711
    8DPPC   H2S  945   1.462   3.145   7.580
    8DPPC    C3  946   1.283   3.407   7.922
    8DPPC    HX  947   1.288   3.426   8.031
    8DPPC    HY  948   1.185   3.446   7.887
    8DPPC   O31  949   1.397   3.470   7.859
    8DPPC   C31  950   1.371   3.543   7.751
    8DPPC   O32  951   1.262   3.555   7.700
    8DPPC   C32  952   1.502   3.594   7.692
    8DPPC   H2X  953   1.573   3.617   7.774
    8DPPC   H2Y  954   1.480   3.690   7.641
    8DPPC   C23  955   1.461   2.927   7.602
    8DPPC   H3R  956   1.357   2.907   7.567
    8DPPC   H3S  957   1.485   2.853   7.682
    8DPPC   C24  958   1.554   2.906   7.483
    8DPPC   H4R  959   1.559   2.798   7.460
    8DPPC   H4S  960   1.657   2.940   7.508
    8DPPC   C25  961   1.504   2.976   7.356
    8DPPC   H5R  962   1.491   3.085   7.372
    8DPPC   H5S  963   1.404   2.935   7.330
    8DPPC   C26  964   1.601   2.953   7.241
    8DPPC   H6R  965   1.621   2.845   7.231
    8DPPC   H6S  966   1.697   3.004   7.267
    8DPPC   C27  967   1.552   3.006   7.107
    8DPPC   H7R  968   1.641   3.017   7.041
    8DPPC   H7S  969   1.506   3.106   7.121
    8DPPC   C28  970   1.452   2.912   7.038
    8DPPC   H8R  971   1.369   2.889   7.108
    8DPPC   H8S  972   1.504   2.816   7.014
    8DPPC   C29  973   1.393   2.972   6.909
    8DPPC   H9R  974   1.340   3.066   6.936
    8DPPC   H9S  975   1.318   2.900   6.868
    8DPPC  C210  976   1.499   3.002   6.802
    8DPPC  H10R  977   1.549   2.908   6.771
    8DPPC  H10S  978   1.577   3.070   6.844
    8DPPC  C211  979   1.441   3.073   6.679
    8DPPC  H11R  980   1.525   3.097   6.610
    8DPPC  H11S  981   1.396   3.169   6.711
    8DPPC  C212  982   1.337   2.989   6.603
    8DPPC  H12R  983   1.245   2.979   6.664
    8DPPC  H12S  984   1.380   2.887   6.586
    8DPPC  C213  985   1.301   3.050   6.466
    8DPPC  H13R  986   1.243   2.976   6.407
    8DPPC  H13S  987   1.395   3.071   6.411
    8DPPC  C214  988   1.218   3.179   6.478
    8DPPC  H14R  989   1.265   3.245   6.553
    8DPPC  H14S  990   1.118   3.151   6.515
    8DPPC  C215  991   1.207   3.254   6.344
    8DPPC  H15R  992   1.151   3.190   6.274
    8DPPC  H15S  993   1.310   3.265   6.303
    8DPPC  C216  994   1.142   3.393   6.349
    8DPPC  H16R  995   1.169   3.451   6.258
    8DPPC  H16S  996   1.175   3.450   6.438
    8DPPC  H16T  997   1.031   3.385   6.351
    8DPPC   C33  998   1.560   3.493   7.592
    8DPPC   H3X  999   1.579   3.395   7.642
    8DPPC   H3Y 1000   1.657   3.533   7.553
    8DPPC   C34 1001   1.464   3.469   7.475
    8DPPC   H4X 1002   1.427   3.567   7.439
    8DPPC   H4Y 1003   1.375   3.413   7.514
    8DPPC   C35 1004   1.522   3.388   7.359
    8DPPC   H5X 1005   1.436   3.337   7.309
    8DPPC   H5Y 1006   1.591   3.308   7.395
    8DPPC   C36 1007   1.590   3.476   7.253
    8DPPC   H6X 1008   1.693   3.503   7.283
    8DPPC   H6Y 1009   1.532   3.570   7.243
    8DPPC   C37 1010   1.588   3.409   7.115
    8DPPC   H7X 1011   1.592   3.487   7.036
    8DPPC   H7Y 1012   1.491   3.357   7.101
    8DPPC   C38 1013   1.701   3.307   7.094
    8DPPC   H8X 1014   1.673   3.242   7.008
    8DPPC   H8Y 1015   1.710   3.242   7.183
    8DPPC   C39 1016   1.839   3.367   7.061
    8DPPC   H9X 1017   1.905   3.284   7.028
    8DPPC   H9Y 1018   1.883   3.411   7.153
    8DPPC  C310 1019   1.838   3.475   6.952
    8DPPC  H10X 1020   1.942   3.505   6.927
    8DPPC  H10Y 1021   1.788   3.566   6.993
    8DPPC  C311 1022   1.766   3.434   6.822
    8DPPC  H11X 1023   1.670   3.383   6.845
    8DPPC  H11Y 1024   1.830   3.364   6.765
    8DPPC  C312 1025   1.734   3.558   6.738
    8DPPC  H12X 1026   1.829   3.614   6.722
    8DPPC  H12Y 1027   1.664   3.624   6.793
    8DPPC  C313 1028   1.676   3.525   6.601
    8DPPC  H13X 1029   1.752   3.469   6.543
    8DPPC  H13Y 1030   1.656   3.622   6.548
    8DPPC  C314 1031   1.544   3.448   6.603
    8DPPC  H14X 1032   1.471   3.504   6.665
    8DPPC  H14Y 1033   1.559   3.347   6.648
    8DPPC  C315 1034   1.489   3.433   6.461
    8DPPC  H15X 1035   1.480   3.534   6.414
    8DPPC  H15Y 1036   1.386   3.394   6.471
    8DPPC  C316 1037   1.570   3.341   6.370
    8DPPC  H16X 1038   1.673   3.381   6.354
    8DPPC  H16Y 1039   1.521   3.331   6.271
    8DPPC  H16Z 1040   1.580   3.240   6.415
    9DPPC     N 1041   3.056   1.456   8.295
    9DPPC   C13 1042   3.100   1.569   8.204
    9DPPC  H13A 1043   3.204   1.551   8.174
    9DPPC  H13B 1044   3.089   1.667   8.248
    9DPPC  H13C 1045   3.045   1.570   8.110
    9DPPC   C14 1046   3.138   1.463   8.420
    9DPPC  H14A 1047   3.244   1.455   8.394
    9DPPC  H14B 1048   3.118   1.383   8.491
    9DPPC  H14C 1049   3.127   1.558   8.469
    9DPPC   C15 1050   2.912   1.481   8.323
    9DPPC  H15A 1051   2.901   1.578   8.372
    9DPPC  H15B 1052   2.868   1.407   8.389
    9DPPC  H15C 1053   2.854   1.491   8.232
    9DPPC   C12 1054   3.083   1.328   8.221
    9DPPC  H12A 1055   3.053   1.340   8.116
    9DPPC  H12B 1056   3.025   1.247   8.263
    9DPPC   C11 1057   3.232   1.285   8.214
    9DPPC  H11A 1058   3.235   1.192   8.153
    9DPPC  H11B 1059   3.267   1.257   8.316
    9DPPC     P 1060   3.327   1.398   8.002
    9DPPC   O13 1061   3.430   1.497   7.965
    9DPPC   O14 1062   3.189   1.410   7.948
    9DPPC   O11 1063   3.380   1.253   7.982
    9DPPC   O12 1064   3.316   1.390   8.161
    9DPPC    C1 1065   3.521   1.231   7.979
    9DPPC    HA 1066   3.542   1.135   8.031
    9DPPC    HB 1067   3.583   1.309   8.029
    9DPPC    C2 1068   3.561   1.212   7.832
    9DPPC    HS 1069   3.660   1.164   7.833
    9DPPC   O21 1070   3.572   1.332   7.757
    9DPPC   C21 1071   3.673   1.409   7.782
    9DPPC   O22 1072   3.757   1.392   7.869
    9DPPC   C22 1073   3.684   1.510   7.665
    9DPPC   H2R 1074   3.746   1.460   7.587
    9DPPC   H2S 1075   3.740   1.600   7.699
    9DPPC    C3 1076   3.458   1.121   7.760
    9DPPC    HX 1077   3.415   1.052   7.836
    9DPPC    HY 1078   3.514   1.056   7.688
    9DPPC   O31 1079   3.352   1.200   7.700
    9DPPC   C31 1080   3.342   1.195   7.569
    9DPPC   O32 1081   3.405   1.118   7.498
    9DPPC   C32 1082   3.238   1.292   7.509
    9DPPC   H2X 1083   3.263   1.395   7.543
    9DPPC   H2Y 1084   3.140   1.265   7.553
    9DPPC   C23 1085   3.548   1.551   7.602
    9DPPC   H3R 1086   3.498   1.625   7.669
    9DPPC   H3S 1087   3.478   1.464   7.596
    9DPPC   C24 1088   3.554   1.607   7.458
    9DPPC   H4R 1089   3.590   1.528   7.389
    9DPPC   H4S 1090   3.627   1.691   7.455
    9DPPC   C25 1091   3.416   1.657   7.412
    9DPPC   H5R 1092   3.386   1.738   7.482
    9DPPC   H5S 1093   3.339   1.577   7.424
    9DPPC   C26 1094   3.409   1.714   7.270
    9DPPC   H6R 1095   3.507   1.757   7.242
    9DPPC   H6S 1096   3.335   1.798   7.271
    9DPPC   C27 1097   3.361   1.616   7.162
    9DPPC   H7R 1098   3.260   1.579   7.189
    9DPPC   H7S 1099   3.430   1.529   7.156
    9DPPC   C28 1100   3.352   1.686   7.025
    9DPPC   H8R 1101   3.452   1.726   7.000
    9DPPC   H8S 1102   3.284   1.773   7.034
    9DPPC   C29 1103   3.310   1.598   6.908
    9DPPC   H9R 1104   3.210   1.554   6.929
    9DPPC   H9S 1105   3.384   1.514   6.899
    9DPPC  C210 1106   3.305   1.675   6.775
    9DPPC  H10R 1107   3.385   1.752   6.771
    9DPPC  H10S 1108   3.208   1.729   6.771
    9DPPC  C211 1109   3.318   1.585   6.652
    9DPPC  H11R 1110   3.260   1.491   6.671
    9DPPC  H11S 1111   3.424   1.558   6.637
    9DPPC  C212 1112   3.260   1.646   6.523
    9DPPC  H12R 1113   3.307   1.743   6.499
    9DPPC  H12S 1114   3.152   1.663   6.543
    9DPPC  C213 1115   3.274   1.548   6.406
    9DPPC  H13R 1116   3.259   1.447   6.449
    9DPPC  H13S 1117   3.377   1.551   6.363
    9DPPC  C214 1118   3.170   1.566   6.295
    9DPPC  H14R 1119   3.211   1.632   6.215
    9DPPC  H14S 1120   3.083   1.617   6.340
    9DPPC  C215 1121   3.122   1.433   6.236
    9DPPC  H15R 1122   3.211   1.374   6.202
    9DPPC  H15S 1123   3.059   1.454   6.147
    9DPPC  C216 1124   3.039   1.346   6.331
    9DPPC  H16R 1125   2.947   1.399   6.364
    9DPPC  H16S 1126   3.096   1.317   6.422
    9DPPC  H16T 1127   3.010   1.253   6.278
    9DPPC   C33 1128   3.231   1.286   7.352
    9DPPC   H3X 1129   3.293   1.203   7.314
    9DPPC   H3Y 1130   3.275   1.379   7.309
    9DPPC   C34 1131   3.090   1.265   7.292
    9DPPC   H4X 1132   3.039   1.362   7.276
    9DPPC   H4Y 1133   3.030   1.210   7.369
    9DPPC   C35 1134   3.085   1.177   7.164
    9DPPC   H5X 1135   2.996   1.110   7.177
    9DPPC   H5Y 1136   3.173   1.109   7.158
    9DPPC   C36 1137   3.064   1.251   7.030
    9DPPC   H6X 1138   3.021   1.351   7.053
    9DPPC   H6Y 1139   2.989   1.196   6.969
    9DPPC   C37 1140   3.190   1.271   6.943
    9DPPC   H7X 1141   3.273   1.303   7.010
    9DPPC   H7Y 1142   3.170   1.353   6.871
    9DPPC   C38 1143   3.231   1.148   6.860
    9DPPC   H8X 1144   3.166   1.138   6.770
    9DPPC   H8Y 1145   3.215   1.058   6.923
    9DPPC   C39 1146   3.380   1.147   6.820
    9DPPC   H9X 1147   3.405   1.046   6.783
    9DPPC   H9Y 1148   3.437   1.166   6.912
    9DPPC  C310 1149   3.430   1.246   6.713
    9DPPC  H10X 1150   3.541   1.246   6.719
    9DPPC  H10Y 1151   3.397   1.348   6.739
    9DPPC  C311 1152   3.392   1.209   6.569
    9DPPC  H11X 1153   3.283   1.229   6.555
    9DPPC  H11Y 1154   3.408   1.100   6.553
    9DPPC  C312 1155   3.471   1.287   6.463
    9DPPC  H12X 1156   3.462   1.396   6.485
    9DPPC  H12Y 1157   3.424   1.268   6.363
    9DPPC  C313 1158   3.621   1.258   6.453
    9DPPC  H13X 1159   3.674   1.301   6.541
    9DPPC  H13Y 1160   3.660   1.311   6.362
    9DPPC  C314 1161   3.654   1.109   6.440
    9DPPC  H14X 1162   3.581   1.062   6.371
    9DPPC  H14Y 1163   3.644   1.061   6.540
    9DPPC  C315 1164   3.794   1.086   6.384
    9DPPC  H15X 1165   3.796   1.124   6.280
    9DPPC  H15Y 1166   3.813   0.976   6.379
    9DPPC  C316 1167   3.903   1.154   6.465
    9DPPC  H16X 1168   3.899   1.264   6.451
    9DPPC  H16Y 1169   4.003   1.119   6.434
    9DPPC  H16Z 1170   3.892   1.132   6.573
   10DPPC     N 1171   1.815   1.134   8.198
   10DPPC   C13 1172   1.855   1.275   8.232
   10DPPC  H13A 1173   1.949   1.302   8.186
   10DPPC  H13B 1174   1.857   1.291   8.339
   10DPPC  H13C 1175   1.780   1.343   8.190
   10DPPC   C14 1176   1.796   1.122   8.050
   10DPPC  H14A 1177   1.746   1.029   8.026
   10DPPC  H14B 1178   1.889   1.130   7.995
   10DPPC  H14C 1179   1.727   1.200   8.017
   10DPPC   C15 1180   1.920   1.037   8.238
   10DPPC  H15A 1181   1.884   0.937   8.216
   10DPPC  H15B 1182   1.941   1.043   8.344
   10DPPC  H15C 1183   2.013   1.052   8.181
   10DPPC   C12 1184   1.682   1.109   8.269
   10DPPC  H12A 1185   1.613   1.191   8.247
   10DPPC  H12B 1186   1.697   1.115   8.376
   10DPPC   C11 1187   1.603   0.979   8.243
   10DPPC  H11A 1188   1.519   0.976   8.316
   10DPPC  H11B 1189   1.665   0.889   8.265
   10DPPC     P 1190   1.453   1.090   8.065
   10DPPC   O13 1191   1.527   1.209   8.018
   10DPPC   O14 1192   1.353   1.110   8.173
   10DPPC   O11 1193   1.379   1.026   7.943
   10DPPC   O12 1194   1.554   0.974   8.109
   10DPPC    C1 1195   1.373   0.887   7.920
   10DPPC    HA 1196   1.266   0.861   7.915
   10DPPC    HB 1197   1.411   0.825   8.005
   10DPPC    C2 1198   1.445   0.847   7.789
   10DPPC    HS 1199   1.409   0.745   7.762
   10DPPC   O21 1200   1.587   0.841   7.811
   10DPPC   C21 1201   1.632   0.731   7.865
   10DPPC   O22 1202   1.573   0.651   7.937
   10DPPC   C22 1203   1.766   0.702   7.801
   10DPPC   H2R 1204   1.832   0.662   7.880
   10DPPC   H2S 1205   1.812   0.794   7.760
   10DPPC    C3 1206   1.422   0.936   7.660
   10DPPC    HX 1207   1.325   0.909   7.614
   10DPPC    HY 1208   1.500   0.897   7.593
   10DPPC   O31 1209   1.434   1.080   7.667
   10DPPC   C31 1210   1.447   1.135   7.544
   10DPPC   O32 1211   1.457   1.071   7.441
   10DPPC   C32 1212   1.449   1.288   7.550
   10DPPC   H2X 1213   1.473   1.320   7.654
   10DPPC   H2Y 1214   1.347   1.322   7.525
   10DPPC   C23 1215   1.745   0.593   7.693
   10DPPC   H3R 1216   1.699   0.502   7.738
   10DPPC   H3S 1217   1.844   0.562   7.655
   10DPPC   C24 1218   1.661   0.635   7.571
   10DPPC   H4R 1219   1.555   0.645   7.601
   10DPPC   H4S 1220   1.664   0.552   7.497
   10DPPC   C25 1221   1.707   0.762   7.498
   10DPPC   H5R 1222   1.817   0.761   7.484
   10DPPC   H5S 1223   1.688   0.852   7.560
   10DPPC   C26 1224   1.640   0.776   7.359
   10DPPC   H6R 1225   1.682   0.695   7.295
   10DPPC   H6S 1226   1.671   0.873   7.314
   10DPPC   C27 1227   1.486   0.767   7.358
   10DPPC   H7R 1228   1.445   0.859   7.313
   10DPPC   H7S 1229   1.446   0.762   7.461
   10DPPC   C28 1230   1.427   0.645   7.287
   10DPPC   H8R 1231   1.316   0.645   7.301
   10DPPC   H8S 1232   1.466   0.552   7.334
   10DPPC   C29 1233   1.457   0.639   7.137
   10DPPC   H9R 1234   1.411   0.547   7.094
   10DPPC   H9S 1235   1.567   0.630   7.126
   10DPPC  C210 1236   1.411   0.761   7.055
   10DPPC  H10R 1237   1.442   0.857   7.101
   10DPPC  H10S 1238   1.300   0.763   7.043
   10DPPC  C211 1239   1.479   0.746   6.920
   10DPPC  H11R 1240   1.447   0.647   6.880
   10DPPC  H11S 1241   1.589   0.743   6.940
   10DPPC  C212 1242   1.455   0.853   6.812
   10DPPC  H12R 1243   1.465   0.955   6.855
   10DPPC  H12S 1244   1.352   0.841   6.774
   10DPPC  C213 1245   1.557   0.833   6.698
   10DPPC  H13R 1246   1.653   0.882   6.724
   10DPPC  H13S 1247   1.518   0.880   6.605
   10DPPC  C214 1248   1.583   0.683   6.671
   10DPPC  H14R 1249   1.484   0.634   6.662
   10DPPC  H14S 1250   1.635   0.637   6.759
   10DPPC  C215 1251   1.667   0.643   6.550
   10DPPC  H15R 1252   1.769   0.689   6.556
   10DPPC  H15S 1253   1.619   0.679   6.457
   10DPPC  C216 1254   1.678   0.491   6.547
   10DPPC  H16R 1255   1.735   0.455   6.637
   10DPPC  H16S 1256   1.730   0.456   6.455
   10DPPC  H16T 1257   1.578   0.444   6.549
   10DPPC   C33 1258   1.552   1.343   7.449
   10DPPC   H3X 1259   1.551   1.283   7.355
   10DPPC   H3Y 1260   1.654   1.332   7.493
   10DPPC   C34 1261   1.532   1.489   7.406
   10DPPC   H4X 1262   1.617   1.518   7.341
   10DPPC   H4Y 1263   1.535   1.554   7.496
   10DPPC   C35 1264   1.401   1.518   7.329
   10DPPC   H5X 1265   1.399   1.626   7.303
   10DPPC   H5Y 1266   1.315   1.499   7.397
   10DPPC   C36 1267   1.379   1.438   7.199
   10DPPC   H6X 1268   1.277   1.462   7.163
   10DPPC   H6Y 1269   1.378   1.329   7.220
   10DPPC   C37 1270   1.478   1.472   7.087
   10DPPC   H7X 1271   1.562   1.398   7.090
   10DPPC   H7Y 1272   1.521   1.572   7.105
   10DPPC   C38 1273   1.415   1.471   6.945
   10DPPC   H8X 1274   1.362   1.376   6.928
   10DPPC   H8Y 1275   1.498   1.475   6.872
   10DPPC   C39 1276   1.321   1.590   6.918
   10DPPC   H9X 1277   1.375   1.685   6.938
   10DPPC   H9Y 1278   1.236   1.584   6.989
   10DPPC  C310 1279   1.265   1.594   6.775
   10DPPC  H10X 1280   1.177   1.663   6.772
   10DPPC  H10Y 1281   1.227   1.493   6.747
   10DPPC  C311 1282   1.367   1.644   6.672
   10DPPC  H11X 1283   1.464   1.659   6.723
   10DPPC  H11Y 1284   1.335   1.744   6.634
   10DPPC  C312 1285   1.390   1.550   6.553
   10DPPC  H12X 1286   1.461   1.602   6.484
   10DPPC  H12Y 1287   1.296   1.533   6.498
   10DPPC  C313 1288   1.453   1.415   6.592
   10DPPC  H13X 1289   1.373   1.349   6.633
   10DPPC  H13Y 1290   1.529   1.428   6.671
   10DPPC  C314 1291   1.519   1.349   6.471
   10DPPC  H14X 1292   1.458   1.373   6.382
   10DPPC  H14Y 1293   1.522   1.238   6.485
   10DPPC  C315 1294   1.662   1.399   6.446
   10DPPC  H15X 1295   1.726   1.362   6.529
   10DPPC  H15Y 1296   1.663   1.510   6.448
   10DPPC  C316 1297   1.720   1.350   6.313
   10DPPC  H16X 1298   1.647   1.366   6.231
   10DPPC  H16Y 1299   1.743   1.242   6.320
   10DPPC  H16Z 1300   1.813   1.403   6.286
   11DPPC     N 1301   3.544   2.063   8.185
   11DPPC   C13 1302   3.401   2.026   8.207
   11DPPC  H13A 1303   3.333   2.081   8.142
   11DPPC  H13B 1304   3.374   2.048   8.310
   11DPPC  H13C 1305   3.386   1.920   8.191
   11DPPC   C14 1306   3.566   2.202   8.234
   11DPPC  H14A 1307   3.667   2.235   8.214
   11DPPC  H14B 1308   3.545   2.212   8.339
   11DPPC  H14C 1309   3.504   2.271   8.177
   11DPPC   C15 1310   3.629   1.972   8.268
   11DPPC  H15A 1311   3.734   1.996   8.258
   11DPPC  H15B 1312   3.614   1.868   8.242
   11DPPC  H15C 1313   3.603   1.982   8.372
   11DPPC   C12 1314   3.577   2.058   8.036
   11DPPC  H12A 1315   3.561   1.958   7.999
   11DPPC  H12B 1316   3.683   2.081   8.023
   11DPPC   C11 1317   3.503   2.161   7.945
   11DPPC  H11A 1318   3.396   2.167   7.974
   11DPPC  H11B 1319   3.504   2.125   7.839
   11DPPC     P 1320   3.700   2.319   7.880
   11DPPC   O13 1321   3.788   2.203   7.908
   11DPPC   O14 1322   3.746   2.450   7.933
   11DPPC   O11 1323   3.659   2.327   7.726
   11DPPC   O12 1324   3.561   2.292   7.955
   11DPPC    C1 1325   3.570   2.427   7.672
   11DPPC    HA 1326   3.620   2.526   7.672
   11DPPC    HB 1327   3.478   2.437   7.735
   11DPPC    C2 1328   3.519   2.395   7.526
   11DPPC    HS 1329   3.417   2.353   7.535
   11DPPC   O21 1330   3.609   2.298   7.462
   11DPPC   C21 1331   3.586   2.169   7.501
   11DPPC   O22 1332   3.480   2.130   7.547
   11DPPC   C22 1333   3.709   2.074   7.484
   11DPPC   H2R 1334   3.718   2.022   7.581
   11DPPC   H2S 1335   3.799   2.137   7.472
   11DPPC    C3 1336   3.501   2.529   7.434
   11DPPC    HX 1337   3.452   2.604   7.500
   11DPPC    HY 1338   3.424   2.495   7.361
   11DPPC   O31 1339   3.613   2.596   7.361
   11DPPC   C31 1340   3.570   2.677   7.259
   11DPPC   O32 1341   3.451   2.699   7.245
   11DPPC   C32 1342   3.675   2.751   7.163
   11DPPC   H2X 1343   3.683   2.851   7.212
   11DPPC   H2Y 1344   3.621   2.768   7.068
   11DPPC   C23 1345   3.705   1.965   7.370
   11DPPC   H3R 1346   3.614   1.903   7.380
   11DPPC   H3S 1347   3.794   1.900   7.382
   11DPPC   C24 1348   3.710   2.034   7.233
   11DPPC   H4R 1349   3.787   2.115   7.248
   11DPPC   H4S 1350   3.609   2.078   7.218
   11DPPC   C25 1351   3.751   1.968   7.101
   11DPPC   H5R 1352   3.842   1.906   7.109
   11DPPC   H5S 1353   3.779   2.052   7.032
   11DPPC   C26 1354   3.637   1.893   7.030
   11DPPC   H6R 1355   3.539   1.935   7.062
   11DPPC   H6S 1356   3.640   1.788   7.065
   11DPPC   C27 1357   3.645   1.894   6.876
   11DPPC   H7R 1358   3.581   1.812   6.838
   11DPPC   H7S 1359   3.749   1.872   6.843
   11DPPC   C28 1360   3.597   2.024   6.807
   11DPPC   H8R 1361   3.591   2.003   6.698
   11DPPC   H8S 1362   3.673   2.104   6.822
   11DPPC   C29 1363   3.460   2.075   6.853
   11DPPC   H9R 1364   3.468   2.105   6.960
   11DPPC   H9S 1365   3.383   1.995   6.846
   11DPPC  C210 1366   3.413   2.200   6.775
   11DPPC  H10R 1367   3.501   2.262   6.749
   11DPPC  H10S 1368   3.348   2.260   6.843
   11DPPC  C211 1369   3.328   2.172   6.650
   11DPPC  H11R 1370   3.234   2.123   6.682
   11DPPC  H11S 1371   3.381   2.104   6.581
   11DPPC  C212 1372   3.295   2.304   6.578
   11DPPC  H12R 1373   3.281   2.384   6.654
   11DPPC  H12S 1374   3.199   2.294   6.522
   11DPPC  C213 1375   3.405   2.346   6.479
   11DPPC  H13R 1376   3.406   2.275   6.394
   11DPPC  H13S 1377   3.504   2.341   6.528
   11DPPC  C214 1378   3.383   2.488   6.426
   11DPPC  H14R 1379   3.401   2.558   6.510
   11DPPC  H14S 1380   3.278   2.502   6.396
   11DPPC  C215 1381   3.477   2.528   6.310
   11DPPC  H15R 1382   3.582   2.507   6.341
   11DPPC  H15S 1383   3.466   2.638   6.294
   11DPPC  C216 1384   3.449   2.462   6.176
   11DPPC  H16R 1385   3.513   2.506   6.097
   11DPPC  H16S 1386   3.345   2.479   6.145
   11DPPC  H16T 1387   3.468   2.352   6.180
   11DPPC   C33 1388   3.825   2.718   7.128
   11DPPC   H3X 1389   3.861   2.648   7.203
   11DPPC   H3Y 1390   3.882   2.812   7.143
   11DPPC   C34 1391   3.868   2.667   6.986
   11DPPC   H4X 1392   3.867   2.750   6.913
   11DPPC   H4Y 1393   3.797   2.592   6.953
   11DPPC   C35 1394   4.004   2.590   6.977
   11DPPC   H5X 1395   4.048   2.587   7.080
   11DPPC   H5Y 1396   4.074   2.646   6.912
   11DPPC   C36 1397   3.998   2.445   6.923
   11DPPC   H6X 1398   3.900   2.397   6.945
   11DPPC   H6Y 1399   4.075   2.385   6.977
   11DPPC   C37 1400   4.028   2.433   6.773
   11DPPC   H7X 1401   4.131   2.474   6.755
   11DPPC   H7Y 1402   3.957   2.496   6.716
   11DPPC   C38 1403   4.024   2.289   6.719
   11DPPC   H8X 1404   4.025   2.216   6.803
   11DPPC   H8Y 1405   4.114   2.270   6.658
   11DPPC   C39 1406   3.901   2.264   6.631
   11DPPC   H9X 1407   3.897   2.341   6.551
   11DPPC   H9Y 1408   3.809   2.274   6.693
   11DPPC  C310 1409   3.901   2.125   6.564
   11DPPC  H10X 1410   3.913   2.048   6.644
   11DPPC  H10Y 1411   3.989   2.116   6.497
   11DPPC  C311 1412   3.771   2.098   6.488
   11DPPC  H11X 1413   3.686   2.122   6.556
   11DPPC  H11Y 1414   3.764   1.990   6.464
   11DPPC  C312 1415   3.752   2.181   6.360
   11DPPC  H12X 1416   3.751   2.289   6.386
   11DPPC  H12Y 1417   3.651   2.157   6.318
   11DPPC  C313 1418   3.856   2.155   6.251
   11DPPC  H13X 1419   3.957   2.186   6.287
   11DPPC  H13Y 1420   3.832   2.219   6.163
   11DPPC  C314 1421   3.861   2.008   6.208
   11DPPC  H14X 1422   3.763   1.978   6.166
   11DPPC  H14Y 1423   3.881   1.944   6.297
   11DPPC  C315 1424   3.972   1.977   6.107
   11DPPC  H15X 1425   3.976   1.866   6.098
   11DPPC  H15Y 1426   4.069   2.011   6.150
   11DPPC  C316 1427   3.954   2.035   5.968
   11DPPC  H16X 1428   3.895   2.129   5.972
   11DPPC  H16Y 1429   3.900   1.963   5.903
   11DPPC  H16Z 1430   4.052   2.058   5.921
   12DPPC     N 1431   1.037   1.920   8.087
   12DPPC   C13 1432   1.121   2.040   8.107
   12DPPC  H13A 1433   1.196   2.051   8.030
   12DPPC  H13B 1434   1.165   2.042   8.205
   12DPPC  H13C 1435   1.058   2.129   8.096
   12DPPC   C14 1436   0.972   1.931   7.951
   12DPPC  H14A 1437   1.046   1.930   7.873
   12DPPC  H14B 1438   0.918   2.026   7.944
   12DPPC  H14C 1439   0.900   1.850   7.937
   12DPPC   C15 1440   1.124   1.799   8.093
   12DPPC  H15A 1441   1.061   1.710   8.101
   12DPPC  H15B 1442   1.189   1.802   8.179
   12DPPC  H15C 1443   1.183   1.793   8.003
   12DPPC   C12 1444   0.929   1.920   8.193
   12DPPC  H12A 1445   0.861   2.001   8.170
   12DPPC  H12B 1446   0.973   1.948   8.288
   12DPPC   C11 1447   0.844   1.792   8.216
   12DPPC  H11A 1448   0.767   1.817   8.292
   12DPPC  H11B 1449   0.913   1.717   8.261
   12DPPC     P 1450   0.765   1.590   8.069
   12DPPC   O13 1451   0.635   1.544   8.126
   12DPPC   O14 1452   0.890   1.525   8.116
   12DPPC   O11 1453   0.757   1.593   7.911
   12DPPC   O12 1454   0.780   1.745   8.097
   12DPPC    C1 1455   0.678   1.696   7.849
   12DPPC    HA 1456   0.713   1.798   7.876
   12DPPC    HB 1457   0.570   1.686   7.878
   12DPPC    C2 1458   0.684   1.684   7.695
   12DPPC    HS 1459   0.637   1.585   7.673
   12DPPC   O21 1460   0.822   1.693   7.652
   12DPPC   C21 1461   0.849   1.616   7.549
   12DPPC   O22 1462   0.775   1.533   7.500
   12DPPC   C22 1463   0.988   1.647   7.495
   12DPPC   H2R 1464   1.044   1.551   7.493
   12DPPC   H2S 1465   1.040   1.719   7.562
   12DPPC    C3 1466   0.601   1.796   7.625
   12DPPC    HX 1467   0.652   1.893   7.647
   12DPPC    HY 1468   0.499   1.803   7.671
   12DPPC   O31 1469   0.596   1.776   7.482
   12DPPC   C31 1470   0.508   1.683   7.446
   12DPPC   O32 1471   0.417   1.641   7.514
   12DPPC   C32 1472   0.539   1.637   7.304
   12DPPC   H2X 1473   0.648   1.644   7.286
   12DPPC   H2Y 1474   0.486   1.706   7.234
   12DPPC   C23 1475   0.977   1.705   7.352
   12DPPC   H3R 1476   0.932   1.807   7.357
   12DPPC   H3S 1477   0.909   1.640   7.292
   12DPPC   C24 1478   1.111   1.712   7.279
   12DPPC   H4R 1479   1.145   1.608   7.258
   12DPPC   H4S 1480   1.187   1.761   7.344
   12DPPC   C25 1481   1.103   1.790   7.146
   12DPPC   H5R 1482   1.202   1.781   7.095
   12DPPC   H5S 1483   1.087   1.898   7.167
   12DPPC   C26 1484   0.994   1.740   7.051
   12DPPC   H6R 1485   0.978   1.630   7.062
   12DPPC   H6S 1486   1.030   1.757   6.947
   12DPPC   C27 1487   0.860   1.815   7.066
   12DPPC   H7R 1488   0.882   1.924   7.059
   12DPPC   H7S 1489   0.812   1.796   7.164
   12DPPC   C28 1490   0.763   1.778   6.955
   12DPPC   H8R 1491   0.724   1.675   6.969
   12DPPC   H8S 1492   0.824   1.777   6.862
   12DPPC   C29 1493   0.646   1.876   6.940
   12DPPC   H9R 1494   0.685   1.980   6.944
   12DPPC   H9S 1495   0.576   1.864   7.026
   12DPPC  C210 1496   0.570   1.857   6.808
   12DPPC  H10R 1497   0.485   1.929   6.802
   12DPPC  H10S 1498   0.526   1.755   6.807
   12DPPC  C211 1499   0.657   1.872   6.682
   12DPPC  H11R 1500   0.594   1.841   6.595
   12DPPC  H11S 1501   0.742   1.802   6.684
   12DPPC  C212 1502   0.713   2.013   6.656
   12DPPC  H12R 1503   0.772   2.048   6.743
   12DPPC  H12S 1504   0.627   2.082   6.644
   12DPPC  C213 1505   0.801   2.016   6.530
   12DPPC  H13R 1506   0.765   1.937   6.462
   12DPPC  H13S 1507   0.906   1.990   6.558
   12DPPC  C214 1508   0.799   2.147   6.449
   12DPPC  H14R 1509   0.839   2.229   6.511
   12DPPC  H14S 1510   0.695   2.173   6.421
   12DPPC  C215 1511   0.878   2.134   6.317
   12DPPC  H15R 1512   0.975   2.085   6.339
   12DPPC  H15S 1513   0.901   2.236   6.279
   12DPPC  C216 1514   0.804   2.057   6.208
   12DPPC  H16R 1515   0.762   1.962   6.247
   12DPPC  H16S 1516   0.871   2.033   6.123
   12DPPC  H16T 1517   0.719   2.118   6.169
   12DPPC   C33 1518   0.493   1.491   7.283
   12DPPC   H3X 1519   0.387   1.478   7.317
   12DPPC   H3Y 1520   0.554   1.424   7.348
   12DPPC   C34 1521   0.502   1.446   7.137
   12DPPC   H4X 1522   0.533   1.530   7.072
   12DPPC   H4Y 1523   0.400   1.414   7.105
   12DPPC   C35 1524   0.597   1.328   7.120
   12DPPC   H5X 1525   0.579   1.257   7.205
   12DPPC   H5Y 1526   0.702   1.363   7.126
   12DPPC   C36 1527   0.572   1.249   6.992
   12DPPC   H6X 1528   0.467   1.217   6.993
   12DPPC   H6Y 1529   0.633   1.156   6.993
   12DPPC   C37 1530   0.596   1.326   6.862
   12DPPC   H7X 1531   0.541   1.423   6.862
   12DPPC   H7Y 1532   0.556   1.265   6.778
   12DPPC   C38 1533   0.745   1.349   6.841
   12DPPC   H8X 1534   0.797   1.255   6.872
   12DPPC   H8Y 1535   0.781   1.431   6.906
   12DPPC   C39 1536   0.782   1.376   6.696
   12DPPC   H9X 1537   0.761   1.285   6.635
   12DPPC   H9Y 1538   0.892   1.394   6.697
   12DPPC  C310 1539   0.714   1.497   6.631
   12DPPC  H10X 1540   0.731   1.585   6.696
   12DPPC  H10Y 1541   0.605   1.480   6.621
   12DPPC  C311 1542   0.777   1.521   6.493
   12DPPC  H11X 1543   0.751   1.436   6.426
   12DPPC  H11Y 1544   0.887   1.523   6.506
   12DPPC  C312 1545   0.738   1.650   6.421
   12DPPC  H12X 1546   0.780   1.735   6.479
   12DPPC  H12Y 1547   0.627   1.660   6.421
   12DPPC  C313 1548   0.791   1.655   6.277
   12DPPC  H13X 1549   0.750   1.744   6.225
   12DPPC  H13Y 1550   0.750   1.566   6.223
   12DPPC  C314 1551   0.944   1.653   6.261
   12DPPC  H14X 1552   0.965   1.631   6.154
   12DPPC  H14Y 1553   0.991   1.573   6.321
   12DPPC  C315 1554   1.016   1.784   6.296
   12DPPC  H15X 1555   1.074   1.772   6.390
   12DPPC  H15Y 1556   0.939   1.861   6.316
   12DPPC  C316 1557   1.108   1.833   6.183
   12DPPC  H16X 1558   1.054   1.831   6.086
   12DPPC  H16Y 1559   1.197   1.767   6.174
   12DPPC  H16Z 1560   1.142   1.937   6.201
   13DPPC     N 1561   3.692   2.852   8.207
   13DPPC   C13 1562   3.827   2.908   8.179
   13DPPC  H13A 1563   3.899   2.830   8.161
   13DPPC  H13B 1564   3.859   2.972   8.260
   13DPPC  H13C 1565   3.819   2.966   8.087
   13DPPC   C14 1566   3.651   2.782   8.081
   13DPPC  H14A 1567   3.642   2.855   8.000
   13DPPC  H14B 1568   3.554   2.736   8.087
   13DPPC  H14C 1569   3.724   2.709   8.049
   13DPPC   C15 1570   3.703   2.756   8.320
   13DPPC  H15A 1571   3.725   2.807   8.412
   13DPPC  H15B 1572   3.781   2.684   8.299
   13DPPC  H15C 1573   3.609   2.702   8.331
   13DPPC   C12 1574   3.594   2.963   8.244
   13DPPC  H12A 1575   3.625   3.008   8.338
   13DPPC  H12B 1576   3.496   2.919   8.258
   13DPPC   C11 1577   3.576   3.080   8.145
   13DPPC  H11A 1578   3.668   3.143   8.152
   13DPPC  H11B 1579   3.493   3.145   8.178
   13DPPC     P 1580   3.626   3.098   7.894
   13DPPC   O13 1581   3.667   3.234   7.936
   13DPPC   O14 1582   3.548   3.084   7.771
   13DPPC   O11 1583   3.757   3.009   7.889
   13DPPC   O12 1584   3.549   3.031   8.013
   13DPPC    C1 1585   3.780   2.927   7.774
   13DPPC    HA 1586   3.687   2.884   7.730
   13DPPC    HB 1587   3.841   2.840   7.807
   13DPPC    C2 1588   3.860   2.998   7.661
   13DPPC    HS 1589   3.944   3.054   7.706
   13DPPC   O21 1590   3.777   3.084   7.581
   13DPPC   C21 1591   3.786   3.215   7.599
   13DPPC   O22 1592   3.854   3.273   7.682
   13DPPC   C22 1593   3.711   3.283   7.486
   13DPPC   H2R 1594   3.760   3.252   7.392
   13DPPC   H2S 1595   3.721   3.393   7.498
   13DPPC    C3 1596   3.918   2.892   7.562
   13DPPC    HX 1597   4.027   2.881   7.585
   13DPPC    HY 1598   3.912   2.940   7.461
   13DPPC   O31 1599   3.852   2.761   7.567
   13DPPC   C31 1600   3.894   2.684   7.462
   13DPPC   O32 1601   3.965   2.731   7.376
   13DPPC   C32 1602   3.852   2.535   7.477
   13DPPC   H2X 1603   3.750   2.533   7.513
   13DPPC   H2Y 1604   3.908   2.503   7.568
   13DPPC   C23 1605   3.563   3.241   7.486
   13DPPC   H3R 1606   3.505   3.323   7.533
   13DPPC   H3S 1607   3.544   3.151   7.548
   13DPPC   C24 1608   3.506   3.209   7.347
   13DPPC   H4R 1609   3.517   3.294   7.278
   13DPPC   H4S 1610   3.397   3.190   7.362
   13DPPC   C25 1611   3.562   3.081   7.283
   13DPPC   H5R 1612   3.591   3.011   7.365
   13DPPC   H5S 1613   3.653   3.103   7.225
   13DPPC   C26 1614   3.454   3.012   7.198
   13DPPC   H6R 1615   3.365   2.995   7.262
   13DPPC   H6S 1616   3.489   2.913   7.165
   13DPPC   C27 1617   3.416   3.084   7.068
   13DPPC   H7R 1618   3.374   3.182   7.095
   13DPPC   H7S 1619   3.334   3.025   7.019
   13DPPC   C28 1620   3.532   3.100   6.969
   13DPPC   H8R 1621   3.501   3.054   6.872
   13DPPC   H8S 1622   3.622   3.044   7.004
   13DPPC   C29 1623   3.567   3.247   6.945
   13DPPC   H9R 1624   3.633   3.286   7.025
   13DPPC   H9S 1625   3.473   3.308   6.950
   13DPPC  C210 1626   3.627   3.272   6.807
   13DPPC  H10R 1627   3.606   3.377   6.777
   13DPPC  H10S 1628   3.578   3.206   6.731
   13DPPC  C211 1629   3.778   3.253   6.804
   13DPPC  H11R 1630   3.805   3.153   6.843
   13DPPC  H11S 1631   3.824   3.329   6.871
   13DPPC  C212 1632   3.834   3.271   6.662
   13DPPC  H12R 1633   3.932   3.323   6.667
   13DPPC  H12S 1634   3.765   3.334   6.602
   13DPPC  C213 1635   3.849   3.139   6.587
   13DPPC  H13R 1636   3.776   3.139   6.503
   13DPPC  H13S 1637   3.821   3.056   6.655
   13DPPC  C214 1638   3.990   3.112   6.533
   13DPPC  H14R 1639   3.991   3.007   6.498
   13DPPC  H14S 1640   4.062   3.119   6.616
   13DPPC  C215 1641   4.036   3.205   6.420
   13DPPC  H15R 1642   4.139   3.176   6.388
   13DPPC  H15S 1643   4.043   3.308   6.460
   13DPPC  C216 1644   3.946   3.211   6.296
   13DPPC  H16R 1645   3.952   3.117   6.238
   13DPPC  H16S 1646   3.978   3.295   6.231
   13DPPC  H16T 1647   3.841   3.231   6.324
   13DPPC   C33 1648   3.882   2.421   7.369
   13DPPC   H3X 1649   3.854   2.328   7.424
   13DPPC   H3Y 1650   3.993   2.421   7.360
   13DPPC   C34 1651   3.825   2.398   7.222
   13DPPC   H4X 1652   3.879   2.306   7.189
   13DPPC   H4Y 1653   3.866   2.471   7.153
   13DPPC   C35 1654   3.676   2.369   7.183
   13DPPC   H5X 1655   3.604   2.409   7.253
   13DPPC   H5Y 1656   3.661   2.263   7.200
   13DPPC   C36 1657   3.622   2.391   7.038
   13DPPC   H6X 1658   3.611   2.289   6.993
   13DPPC   H6Y 1659   3.694   2.439   6.972
   13DPPC   C37 1660   3.480   2.456   7.029
   13DPPC   H7X 1661   3.446   2.482   7.131
   13DPPC   H7Y 1662   3.409   2.376   6.998
   13DPPC   C38 1663   3.452   2.579   6.936
   13DPPC   H8X 1664   3.435   2.669   6.999
   13DPPC   H8Y 1665   3.355   2.559   6.884
   13DPPC   C39 1666   3.556   2.613   6.829
   13DPPC   H9X 1667   3.593   2.518   6.784
   13DPPC   H9Y 1668   3.640   2.665   6.879
   13DPPC  C310 1669   3.517   2.710   6.716
   13DPPC  H10X 1670   3.501   2.812   6.755
   13DPPC  H10Y 1671   3.422   2.675   6.672
   13DPPC  C311 1672   3.631   2.710   6.612
   13DPPC  H11X 1673   3.656   2.603   6.592
   13DPPC  H11Y 1674   3.722   2.755   6.657
   13DPPC  C312 1675   3.601   2.775   6.475
   13DPPC  H12X 1676   3.492   2.780   6.455
   13DPPC  H12Y 1677   3.647   2.705   6.401
   13DPPC  C313 1678   3.669   2.910   6.450
   13DPPC  H13X 1679   3.764   2.905   6.508
   13DPPC  H13Y 1680   3.609   2.992   6.492
   13DPPC  C314 1681   3.715   2.934   6.304
   13DPPC  H14X 1682   3.709   2.838   6.249
   13DPPC  H14Y 1683   3.824   2.959   6.308
   13DPPC  C315 1684   3.646   3.042   6.217
   13DPPC  H15X 1685   3.589   2.990   6.137
   13DPPC  H15Y 1686   3.726   3.098   6.163
   13DPPC  C316 1687   3.556   3.143   6.287
   13DPPC  H16X 1688   3.611   3.200   6.364
   13DPPC  H16Y 1689   3.471   3.091   6.336
   13DPPC  H16Z 1690   3.514   3.215   6.213
   14DPPC     N 1691   3.274   3.803   7.957
   14DPPC   C13 1692   3.247   3.934   8.026
   14DPPC  H13A 1693   3.339   3.979   8.062
   14DPPC  H13B 1694   3.180   3.918   8.110
   14DPPC  H13C 1695   3.200   4.005   7.959
   14DPPC   C14 1696   3.143   3.750   7.910
   14DPPC  H14A 1697   3.154   3.654   7.860
   14DPPC  H14B 1698   3.091   3.818   7.845
   14DPPC  H14C 1699   3.082   3.724   7.997
   14DPPC   C15 1700   3.363   3.822   7.839
   14DPPC  H15A 1701   3.461   3.860   7.865
   14DPPC  H15B 1702   3.319   3.893   7.769
   14DPPC  H15C 1703   3.377   3.729   7.786
   14DPPC   C12 1704   3.329   3.699   8.056
   14DPPC  H12A 1705   3.427   3.726   8.089
   14DPPC  H12B 1706   3.336   3.604   8.004
   14DPPC   C11 1707   3.242   3.665   8.179
   14DPPC  H11A 1708   3.203   3.755   8.230
   14DPPC  H11B 1709   3.307   3.612   8.253
   14DPPC     P 1710   3.103   3.446   8.205
   14DPPC   O13 1711   3.053   3.470   8.343
   14DPPC   O14 1712   3.221   3.357   8.191
   14DPPC   O11 1713   2.985   3.385   8.121
   14DPPC   O12 1714   3.132   3.584   8.136
   14DPPC    C1 1715   2.928   3.449   8.007
   14DPPC    HA 1716   2.947   3.558   8.001
   14DPPC    HB 1717   2.818   3.436   8.012
   14DPPC    C2 1718   2.976   3.381   7.876
   14DPPC    HS 1719   2.954   3.272   7.892
   14DPPC   O21 1720   3.118   3.405   7.853
   14DPPC   C21 1721   3.168   3.312   7.771
   14DPPC   O22 1722   3.106   3.217   7.727
   14DPPC   C22 1723   3.313   3.346   7.737
   14DPPC   H2R 1724   3.343   3.274   7.658
   14DPPC   H2S 1725   3.374   3.324   7.826
   14DPPC    C3 1726   2.894   3.429   7.752
   14DPPC    HX 1727   2.788   3.439   7.785
   14DPPC    HY 1728   2.894   3.345   7.678
   14DPPC   O31 1729   2.943   3.547   7.684
   14DPPC   C31 1730   2.891   3.664   7.720
   14DPPC   O32 1731   2.822   3.683   7.819
   14DPPC   C32 1732   2.948   3.777   7.632
   14DPPC   H2X 1733   3.058   3.764   7.627
   14DPPC   H2Y 1734   2.926   3.871   7.686
   14DPPC   C23 1735   3.336   3.493   7.690
   14DPPC   H3R 1736   3.445   3.508   7.676
   14DPPC   H3S 1737   3.303   3.559   7.773
   14DPPC   C24 1738   3.261   3.536   7.562
   14DPPC   H4R 1739   3.271   3.646   7.549
   14DPPC   H4S 1740   3.153   3.513   7.574
   14DPPC   C25 1741   3.310   3.468   7.432
   14DPPC   H5R 1742   3.299   3.358   7.446
   14DPPC   H5S 1743   3.417   3.492   7.416
   14DPPC   C26 1744   3.229   3.507   7.307
   14DPPC   H6R 1745   3.237   3.616   7.287
   14DPPC   H6S 1746   3.123   3.483   7.328
   14DPPC   C27 1747   3.268   3.430   7.179
   14DPPC   H7R 1748   3.290   3.326   7.209
   14DPPC   H7S 1749   3.359   3.474   7.134
   14DPPC   C28 1750   3.152   3.428   7.077
   14DPPC   H8R 1751   3.117   3.531   7.059
   14DPPC   H8S 1752   3.069   3.371   7.125
   14DPPC   C29 1753   3.184   3.363   6.942
   14DPPC   H9R 1754   3.095   3.306   6.906
   14DPPC   H9S 1755   3.266   3.289   6.952
   14DPPC  C210 1756   3.219   3.466   6.834
   14DPPC  H10R 1757   3.285   3.545   6.879
   14DPPC  H10S 1758   3.126   3.516   6.800
   14DPPC  C211 1759   3.293   3.410   6.711
   14DPPC  H11R 1760   3.400   3.395   6.739
   14DPPC  H11S 1761   3.293   3.487   6.631
   14DPPC  C212 1762   3.241   3.277   6.655
   14DPPC  H12R 1763   3.131   3.277   6.644
   14DPPC  H12S 1764   3.265   3.198   6.730
   14DPPC  C213 1765   3.310   3.239   6.523
   14DPPC  H13R 1766   3.317   3.128   6.519
   14DPPC  H13S 1767   3.415   3.277   6.526
   14DPPC  C214 1768   3.244   3.281   6.390
   14DPPC  H14R 1769   3.172   3.202   6.360
   14DPPC  H14S 1770   3.323   3.282   6.311
   14DPPC  C215 1771   3.171   3.417   6.380
   14DPPC  H15R 1772   3.157   3.438   6.272
   14DPPC  H15S 1773   3.235   3.499   6.420
   14DPPC  C216 1774   3.033   3.418   6.445
   14DPPC  H16R 1775   2.998   3.315   6.467
   14DPPC  H16S 1776   2.958   3.465   6.378
   14DPPC  H16T 1777   3.035   3.475   6.541
   14DPPC   C33 1778   2.893   3.790   7.486
   14DPPC   H3X 1779   2.921   3.892   7.450
   14DPPC   H3Y 1780   2.783   3.785   7.482
   14DPPC   C34 1781   2.957   3.690   7.389
   14DPPC   H4X 1782   2.933   3.586   7.418
   14DPPC   H4Y 1783   3.067   3.703   7.401
   14DPPC   C35 1784   2.927   3.712   7.238
   14DPPC   H5X 1785   3.014   3.669   7.184
   14DPPC   H5Y 1786   2.923   3.820   7.213
   14DPPC   C36 1787   2.802   3.639   7.184
   14DPPC   H6X 1788   2.715   3.708   7.183
   14DPPC   H6Y 1789   2.778   3.555   7.252
   14DPPC   C37 1790   2.820   3.574   7.045
   14DPPC   H7X 1791   2.723   3.529   7.013
   14DPPC   H7Y 1792   2.892   3.490   7.056
   14DPPC   C38 1793   2.872   3.664   6.932
   14DPPC   H8X 1794   2.903   3.599   6.847
   14DPPC   H8Y 1795   2.962   3.721   6.964
   14DPPC   C39 1796   2.766   3.761   6.877
   14DPPC   H9X 1797   2.739   3.835   6.955
   14DPPC   H9Y 1798   2.675   3.702   6.853
   14DPPC  C310 1799   2.814   3.834   6.750
   14DPPC  H10X 1800   2.842   3.759   6.672
   14DPPC  H10Y 1801   2.907   3.889   6.776
   14DPPC  C311 1802   2.711   3.932   6.692
   14DPPC  H11X 1803   2.657   3.981   6.777
   14DPPC  H11Y 1804   2.635   3.877   6.632
   14DPPC  C312 1805   2.771   4.042   6.604
   14DPPC  H12X 1806   2.834   4.107   6.669
   14DPPC  H12Y 1807   2.689   4.106   6.563
   14DPPC  C313 1808   2.860   3.992   6.491
   14DPPC  H13X 1809   2.948   3.941   6.537
   14DPPC  H13Y 1810   2.898   4.081   6.435
   14DPPC  C314 1811   2.797   3.895   6.392
   14DPPC  H14X 1812   2.706   3.940   6.348
   14DPPC  H14Y 1813   2.768   3.800   6.443
   14DPPC  C315 1814   2.898   3.863   6.281
   14DPPC  H15X 1815   2.941   3.958   6.243
   14DPPC  H15Y 1816   2.843   3.817   6.196
   14DPPC  C316 1817   3.010   3.769   6.325
   14DPPC  H16X 1818   3.093   3.766   6.251
   14DPPC  H16Y 1819   2.970   3.667   6.338
   14DPPC  H16Z 1820   3.054   3.801   6.423
   15DPPC     N 1821   0.892   3.228   8.217
   15DPPC   C13 1822   0.758   3.238   8.283
   15DPPC  H13A 1823   0.683   3.204   8.211
   15DPPC  H13B 1824   0.732   3.340   8.310
   15DPPC  H13C 1825   0.753   3.174   8.370
   15DPPC   C14 1826   0.890   3.317   8.100
   15DPPC  H14A 1827   0.979   3.307   8.038
   15DPPC  H14B 1828   0.880   3.420   8.129
   15DPPC  H14C 1829   0.807   3.289   8.035
   15DPPC   C15 1830   0.997   3.268   8.315
   15DPPC  H15A 1831   1.099   3.262   8.278
   15DPPC  H15B 1832   0.989   3.206   8.404
   15DPPC  H15C 1833   0.981   3.371   8.346
   15DPPC   C12 1834   0.908   3.081   8.180
   15DPPC  H12A 1835   0.882   3.027   8.271
   15DPPC  H12B 1836   1.012   3.058   8.161
   15DPPC   C11 1837   0.819   3.019   8.068
   15DPPC  H11A 1838   0.785   2.919   8.107
   15DPPC  H11B 1839   0.885   2.996   7.982
   15DPPC     P 1840   0.567   3.040   8.010
   15DPPC   O13 1841   0.513   3.048   8.148
   15DPPC   O14 1842   0.578   2.908   7.947
   15DPPC   O11 1843   0.481   3.137   7.920
   15DPPC   O12 1844   0.712   3.104   8.021
   15DPPC    C1 1845   0.480   3.278   7.916
   15DPPC    HA 1846   0.540   3.324   7.998
   15DPPC    HB 1847   0.377   3.315   7.929
   15DPPC    C2 1848   0.530   3.335   7.780
   15DPPC    HS 1849   0.490   3.438   7.767
   15DPPC   O21 1850   0.497   3.258   7.663
   15DPPC   C21 1851   0.376   3.258   7.616
   15DPPC   O22 1852   0.273   3.291   7.673
   15DPPC   C22 1853   0.392   3.231   7.466
   15DPPC   H2R 1854   0.478   3.165   7.450
   15DPPC   H2S 1855   0.418   3.330   7.421
   15DPPC    C3 1856   0.684   3.346   7.780
   15DPPC    HX 1857   0.715   3.394   7.875
   15DPPC    HY 1858   0.708   3.413   7.695
   15DPPC   O31 1859   0.744   3.216   7.760
   15DPPC   C31 1860   0.875   3.214   7.771
   15DPPC   O32 1861   0.942   3.305   7.817
   15DPPC   C32 1862   0.935   3.086   7.720
   15DPPC   H2X 1863   0.989   3.045   7.807
   15DPPC   H2Y 1864   1.012   3.114   7.644
   15DPPC   C23 1865   0.265   3.178   7.395
   15DPPC   H3R 1866   0.285   3.183   7.286
   15DPPC   H3S 1867   0.182   3.249   7.417
   15DPPC   C24 1868   0.224   3.035   7.431
   15DPPC   H4R 1869   0.131   3.007   7.375
   15DPPC   H4S 1870   0.197   3.033   7.539
   15DPPC   C25 1871   0.331   2.927   7.406
   15DPPC   H5R 1872   0.310   2.843   7.477
   15DPPC   H5S 1873   0.432   2.964   7.432
   15DPPC   C26 1874   0.333   2.864   7.265
   15DPPC   H6R 1875   0.234   2.821   7.239
   15DPPC   H6S 1876   0.405   2.778   7.270
   15DPPC   C27 1877   0.380   2.956   7.151
   15DPPC   H7R 1878   0.454   3.029   7.187
   15DPPC   H7S 1879   0.294   3.015   7.114
   15DPPC   C28 1880   0.442   2.876   7.035
   15DPPC   H8R 1881   0.363   2.810   6.992
   15DPPC   H8S 1882   0.521   2.809   7.074
   15DPPC   C29 1883   0.502   2.962   6.922
   15DPPC   H9R 1884   0.602   3.000   6.954
   15DPPC   H9S 1885   0.437   3.050   6.904
   15DPPC  C210 1886   0.516   2.882   6.791
   15DPPC  H10R 1887   0.416   2.851   6.755
   15DPPC  H10S 1888   0.572   2.789   6.814
   15DPPC  C211 1889   0.593   2.954   6.679
   15DPPC  H11R 1890   0.635   2.878   6.609
   15DPPC  H11S 1891   0.679   3.009   6.725
   15DPPC  C212 1892   0.508   3.052   6.597
   15DPPC  H12R 1893   0.577   3.109   6.532
   15DPPC  H12S 1894   0.458   3.123   6.667
   15DPPC  C213 1895   0.406   2.987   6.504
   15DPPC  H13R 1896   0.335   2.928   6.565
   15DPPC  H13S 1897   0.458   2.915   6.437
   15DPPC  C214 1898   0.330   3.088   6.415
   15DPPC  H14R 1899   0.238   3.042   6.374
   15DPPC  H14S 1900   0.396   3.108   6.327
   15DPPC  C215 1901   0.295   3.227   6.475
   15DPPC  H15R 1902   0.245   3.283   6.393
   15DPPC  H15S 1903   0.391   3.279   6.499
   15DPPC  C216 1904   0.202   3.238   6.595
   15DPPC  H16R 1905   0.246   3.189   6.685
   15DPPC  H16S 1906   0.104   3.190   6.571
   15DPPC  H16T 1907   0.184   3.344   6.620
   15DPPC   C33 1908   0.836   2.985   7.657
   15DPPC   H3X 1909   0.758   2.954   7.730
   15DPPC   H3Y 1910   0.894   2.894   7.628
   15DPPC   C34 1911   0.772   3.040   7.530
   15DPPC   H4X 1912   0.845   3.111   7.483
   15DPPC   H4Y 1913   0.681   3.098   7.554
   15DPPC   C35 1914   0.739   2.931   7.428
   15DPPC   H5X 1915   0.656   2.868   7.467
   15DPPC   H5Y 1916   0.827   2.864   7.414
   15DPPC   C36 1917   0.696   2.991   7.293
   15DPPC   H6X 1918   0.604   3.050   7.312
   15DPPC   H6Y 1919   0.671   2.908   7.224
   15DPPC   C37 1920   0.795   3.087   7.225
   15DPPC   H7X 1921   0.796   3.184   7.280
   15DPPC   H7Y 1922   0.755   3.107   7.123
   15DPPC   C38 1923   0.940   3.036   7.214
   15DPPC   H8X 1924   0.946   2.931   7.249
   15DPPC   H8Y 1925   1.005   3.097   7.280
   15DPPC   C39 1926   0.995   3.038   7.070
   15DPPC   H9X 1927   0.930   2.972   7.009
   15DPPC   H9Y 1928   1.098   2.995   7.071
   15DPPC  C310 1929   0.998   3.176   7.002
   15DPPC  H10X 1930   1.067   3.242   7.058
   15DPPC  H10Y 1931   0.896   3.221   7.004
   15DPPC  C311 1932   1.046   3.165   6.856
   15DPPC  H11X 1933   1.004   3.073   6.810
   15DPPC  H11Y 1934   1.156   3.154   6.857
   15DPPC  C312 1935   1.010   3.286   6.768
   15DPPC  H12X 1936   1.086   3.290   6.687
   15DPPC  H12Y 1937   1.020   3.381   6.823
   15DPPC  C313 1938   0.872   3.275   6.700
   15DPPC  H13X 1939   0.797   3.330   6.760
   15DPPC  H13Y 1940   0.841   3.168   6.698
   15DPPC  C314 1941   0.875   3.326   6.556
   15DPPC  H14X 1942   0.942   3.258   6.498
   15DPPC  H14Y 1943   0.920   3.428   6.553
   15DPPC  C315 1944   0.739   3.327   6.487
   15DPPC  H15X 1945   0.709   3.432   6.465
   15DPPC  H15Y 1946   0.663   3.289   6.558
   15DPPC  C316 1947   0.736   3.245   6.357
   15DPPC  H16X 1948   0.631   3.229   6.324
   15DPPC  H16Y 1949   0.782   3.145   6.373
   15DPPC  H16Z 1950   0.791   3.297   6.276
   16DPPC     N 1951   2.974   0.465   8.220
   16DPPC   C13 1952   2.850   0.381   8.222
   16DPPC  H13A 1953   2.795   0.382   8.315
   16DPPC  H13B 1954   2.872   0.276   8.200
   16DPPC  H13C 1955   2.783   0.411   8.142
   16DPPC   C14 1956   3.067   0.415   8.327
   16DPPC  H14A 1957   3.159   0.472   8.325
   16DPPC  H14B 1958   3.087   0.310   8.313
   16DPPC  H14C 1959   3.022   0.430   8.425
   16DPPC   C15 1960   3.030   0.447   8.083
   16DPPC  H15A 1961   3.057   0.343   8.063
   16DPPC  H15B 1962   3.111   0.515   8.059
   16DPPC  H15C 1963   2.951   0.471   8.011
   16DPPC   C12 1964   2.946   0.613   8.247
   16DPPC  H12A 1965   3.036   0.669   8.220
   16DPPC  H12B 1966   2.932   0.628   8.353
   16DPPC   C11 1967   2.828   0.682   8.174
   16DPPC  H11A 1968   2.819   0.787   8.212
   16DPPC  H11B 1969   2.734   0.629   8.198
   16DPPC     P 1970   2.962   0.767   7.965
   16DPPC   O13 1971   3.006   0.690   7.846
   16DPPC   O14 1972   3.065   0.802   8.066
   16DPPC   O11 1973   2.880   0.896   7.922
   16DPPC   O12 1974   2.846   0.684   8.034
   16DPPC    C1 1975   2.740   0.894   7.890
   16DPPC    HA 1976   2.683   0.936   7.976
   16DPPC    HB 1977   2.701   0.791   7.872
   16DPPC    C2 1978   2.702   0.980   7.765
   16DPPC    HS 1979   2.593   1.001   7.771
   16DPPC   O21 1980   2.730   0.902   7.647
   16DPPC   C21 1981   2.678   0.946   7.533
   16DPPC   O22 1982   2.591   1.031   7.523
   16DPPC   C22 1983   2.746   0.872   7.417
   16DPPC   H2R 1984   2.803   0.787   7.460
   16DPPC   H2S 1985   2.819   0.941   7.370
   16DPPC    C3 1986   2.779   1.117   7.761
   16DPPC    HX 1987   2.744   1.173   7.851
   16DPPC    HY 1988   2.749   1.177   7.672
   16DPPC   O31 1989   2.923   1.105   7.772
   16DPPC   C31 1990   2.979   1.058   7.660
   16DPPC   O32 1991   2.933   1.073   7.548
   16DPPC   C32 1992   3.109   0.987   7.692
   16DPPC   H2X 1993   3.090   0.905   7.762
   16DPPC   H2Y 1994   3.174   1.060   7.744
   16DPPC   C23 1995   2.647   0.819   7.311
   16DPPC   H3R 1996   2.630   0.896   7.233
   16DPPC   H3S 1997   2.548   0.805   7.360
   16DPPC   C24 1998   2.688   0.684   7.250
   16DPPC   H4R 1999   2.597   0.626   7.225
   16DPPC   H4S 2000   2.746   0.626   7.324
   16DPPC   C25 2001   2.770   0.699   7.121
   16DPPC   H5R 2002   2.817   0.602   7.092
   16DPPC   H5S 2003   2.852   0.771   7.144
   16DPPC   C26 2004   2.691   0.756   7.002
   16DPPC   H6R 2005   2.592   0.794   7.036
   16DPPC   H6S 2006   2.672   0.674   6.929
   16DPPC   C27 2007   2.768   0.870   6.934
   16DPPC   H7R 2008   2.868   0.831   6.904
   16DPPC   H7S 2009   2.784   0.952   7.007
   16DPPC   C28 2010   2.698   0.925   6.810
   16DPPC   H8R 2011   2.603   0.975   6.842
   16DPPC   H8S 2012   2.672   0.840   6.743
   16DPPC   C29 2013   2.786   1.025   6.735
   16DPPC   H9R 2014   2.874   0.973   6.692
   16DPPC   H9S 2015   2.824   1.101   6.807
   16DPPC  C210 2016   2.710   1.101   6.624
   16DPPC  H10R 2017   2.776   1.178   6.579
   16DPPC  H10S 2018   2.626   1.153   6.673
   16DPPC  C211 2019   2.650   1.012   6.513
   16DPPC  H11R 2020   2.576   1.073   6.458
   16DPPC  H11S 2021   2.595   0.927   6.559
   16DPPC  C212 2022   2.752   0.958   6.411
   16DPPC  H12R 2023   2.699   0.885   6.345
   16DPPC  H12S 2024   2.832   0.903   6.465
   16DPPC  C213 2025   2.813   1.068   6.324
   16DPPC  H13R 2026   2.897   1.113   6.382
   16DPPC  H13S 2027   2.738   1.149   6.308
   16DPPC  C214 2028   2.862   1.021   6.186
   16DPPC  H14R 2029   2.907   1.107   6.132
   16DPPC  H14S 2030   2.776   0.985   6.126
   16DPPC  C215 2031   2.966   0.909   6.192
   16DPPC  H15R 2032   2.996   0.880   6.089
   16DPPC  H15S 2033   2.916   0.821   6.236
   16DPPC  C216 2034   3.091   0.944   6.272
   16DPPC  H16R 2035   3.067   0.971   6.377
   16DPPC  H16S 2036   3.139   1.032   6.225
   16DPPC  H16T 2037   3.162   0.859   6.274
   16DPPC   C33 2038   3.178   0.927   7.567
   16DPPC   H3X 2039   3.286   0.913   7.591
   16DPPC   H3Y 2040   3.171   0.997   7.481
   16DPPC   C34 2041   3.126   0.789   7.526
   16DPPC   H4X 2042   3.014   0.790   7.524
   16DPPC   H4Y 2043   3.156   0.714   7.603
   16DPPC   C35 2044   3.180   0.748   7.388
   16DPPC   H5X 2045   3.239   0.654   7.395
   16DPPC   H5Y 2046   3.251   0.828   7.356
   16DPPC   C36 2047   3.069   0.734   7.282
   16DPPC   H6X 2048   2.996   0.816   7.302
   16DPPC   H6Y 2049   3.016   0.638   7.295
   16DPPC   C37 2050   3.120   0.753   7.139
   16DPPC   H7X 2051   3.219   0.804   7.147
   16DPPC   H7Y 2052   3.054   0.823   7.083
   16DPPC   C38 2053   3.133   0.622   7.059
   16DPPC   H8X 2054   3.039   0.602   7.004
   16DPPC   H8Y 2055   3.149   0.537   7.129
   16DPPC   C39 2056   3.252   0.628   6.964
   16DPPC   H9X 2057   3.333   0.563   7.001
   16DPPC   H9Y 2058   3.289   0.733   6.969
   16DPPC  C310 2059   3.225   0.602   6.816
   16DPPC  H10X 2060   3.176   0.502   6.807
   16DPPC  H10Y 2061   3.320   0.596   6.759
   16DPPC  C311 2062   3.141   0.716   6.756
   16DPPC  H11X 2063   3.203   0.808   6.750
   16DPPC  H11Y 2064   3.059   0.739   6.828
   16DPPC  C312 2065   3.078   0.689   6.620
   16DPPC  H12X 2066   3.149   0.713   6.538
   16DPPC  H12Y 2067   2.993   0.761   6.612
   16DPPC  C313 2068   3.023   0.547   6.599
   16DPPC  H13X 2069   3.006   0.497   6.697
   16DPPC  H13Y 2070   3.098   0.487   6.542
   16DPPC  C314 2071   2.887   0.542   6.528
   16DPPC  H14X 2072   2.813   0.584   6.600
   16DPPC  H14Y 2073   2.860   0.437   6.507
   16DPPC  C315 2074   2.879   0.626   6.400
   16DPPC  H15X 2075   2.934   0.721   6.414
   16DPPC  H15Y 2076   2.774   0.654   6.382
   16DPPC  C316 2077   2.934   0.556   6.277
   16DPPC  H16X 2078   3.044   0.548   6.284
   16DPPC  H16Y 2079   2.910   0.615   6.186
   16DPPC  H16Z 2080   2.891   0.454   6.264
   17DPPC     N 2081   1.962   0.537   8.229
   17DPPC   C13 2082   2.002   0.673   8.183
   17DPPC  H13A 2083   2.019   0.740   8.266
   17DPPC  H13B 2084   1.927   0.717   8.118
   17DPPC  H13C 2085   2.094   0.665   8.124
   17DPPC   C14 2086   2.074   0.477   8.309
   17DPPC  H14A 2087   2.113   0.547   8.381
   17DPPC  H14B 2088   2.157   0.453   8.242
   17DPPC  H14C 2089   2.048   0.384   8.357
   17DPPC   C15 2090   1.845   0.551   8.320
   17DPPC  H15A 2091   1.820   0.458   8.369
   17DPPC  H15B 2092   1.760   0.594   8.268
   17DPPC  H15C 2093   1.870   0.620   8.401
   17DPPC   C12 2094   1.938   0.450   8.106
   17DPPC  H12A 2095   1.848   0.482   8.055
   17DPPC  H12B 2096   1.926   0.348   8.138
   17DPPC   C11 2097   2.049   0.448   7.997
   17DPPC  H11A 2098   2.049   0.545   7.942
   17DPPC  H11B 2099   2.023   0.370   7.922
   17DPPC     P 2100   2.289   0.345   7.976
   17DPPC   O13 2101   2.225   0.225   7.919
   17DPPC   O14 2102   2.403   0.333   8.071
   17DPPC   O11 2103   2.324   0.446   7.857
   17DPPC   O12 2104   2.178   0.428   8.054
   17DPPC    C1 2105   2.409   0.559   7.882
   17DPPC    HA 2106   2.509   0.527   7.919
   17DPPC    HB 2107   2.363   0.622   7.963
   17DPPC    C2 2108   2.430   0.656   7.760
   17DPPC    HS 2109   2.461   0.754   7.803
   17DPPC   O21 2110   2.315   0.677   7.679
   17DPPC   C21 2111   2.196   0.689   7.725
   17DPPC   O22 2112   2.161   0.724   7.837
   17DPPC   C22 2113   2.103   0.650   7.611
   17DPPC   H2R 2114   2.147   0.692   7.517
   17DPPC   H2S 2115   2.005   0.699   7.626
   17DPPC    C3 2116   2.542   0.615   7.658
   17DPPC    HX 2117   2.631   0.585   7.717
   17DPPC    HY 2118   2.569   0.707   7.602
   17DPPC   O31 2119   2.507   0.510   7.566
   17DPPC   C31 2120   2.438   0.541   7.456
   17DPPC   O32 2121   2.395   0.650   7.424
   17DPPC   C32 2122   2.428   0.416   7.370
   17DPPC   H2X 2123   2.362   0.344   7.424
   17DPPC   H2Y 2124   2.530   0.373   7.362
   17DPPC   C23 2125   2.093   0.496   7.598
   17DPPC   H3R 2126   2.017   0.455   7.668
   17DPPC   H3S 2127   2.190   0.450   7.631
   17DPPC   C24 2128   2.070   0.447   7.454
   17DPPC   H4R 2129   2.066   0.336   7.452
   17DPPC   H4S 2130   2.160   0.478   7.398
   17DPPC   C25 2131   1.946   0.506   7.384
   17DPPC   H5R 2132   1.903   0.582   7.452
   17DPPC   H5S 2133   1.868   0.428   7.370
   17DPPC   C26 2134   1.976   0.577   7.251
   17DPPC   H6R 2135   2.075   0.626   7.256
   17DPPC   H6S 2136   1.900   0.658   7.236
   17DPPC   C27 2137   1.967   0.483   7.129
   17DPPC   H7R 2138   1.869   0.432   7.131
   17DPPC   H7S 2139   2.046   0.405   7.139
   17DPPC   C28 2140   1.984   0.554   6.994
   17DPPC   H8R 2141   1.894   0.618   6.973
   17DPPC   H8S 2142   1.989   0.476   6.915
   17DPPC   C29 2143   2.110   0.642   6.986
   17DPPC   H9R 2144   2.191   0.591   7.042
   17DPPC   H9S 2145   2.091   0.739   7.036
   17DPPC  C210 2146   2.160   0.665   6.843
   17DPPC  H10R 2147   2.081   0.715   6.782
   17DPPC  H10S 2148   2.180   0.566   6.797
   17DPPC  C211 2149   2.289   0.749   6.841
   17DPPC  H11R 2150   2.362   0.707   6.914
   17DPPC  H11S 2151   2.267   0.852   6.876
   17DPPC  C212 2152   2.356   0.756   6.704
   17DPPC  H12R 2153   2.432   0.837   6.704
   17DPPC  H12S 2154   2.281   0.780   6.626
   17DPPC  C213 2155   2.426   0.624   6.668
   17DPPC  H13R 2156   2.349   0.544   6.660
   17DPPC  H13S 2157   2.495   0.595   6.751
   17DPPC  C214 2158   2.505   0.630   6.538
   17DPPC  H14R 2159   2.593   0.698   6.548
   17DPPC  H14S 2160   2.440   0.672   6.458
   17DPPC  C215 2161   2.551   0.489   6.500
   17DPPC  H15R 2162   2.469   0.419   6.523
   17DPPC  H15S 2163   2.634   0.458   6.567
   17DPPC  C216 2164   2.590   0.471   6.353
   17DPPC  H16R 2165   2.521   0.400   6.303
   17DPPC  H16S 2166   2.692   0.429   6.346
   17DPPC  H16T 2167   2.588   0.568   6.298
   17DPPC   C33 2168   2.372   0.438   7.227
   17DPPC   H3X 2169   2.438   0.504   7.167
   17DPPC   H3Y 2170   2.271   0.486   7.228
   17DPPC   C34 2171   2.362   0.301   7.162
   17DPPC   H4X 2172   2.289   0.242   7.221
   17DPPC   H4Y 2173   2.461   0.251   7.171
   17DPPC   C35 2174   2.322   0.299   7.014
   17DPPC   H5X 2175   2.407   0.338   6.954
   17DPPC   H5Y 2176   2.234   0.363   6.995
   17DPPC   C36 2177   2.291   0.155   6.971
   17DPPC   H6X 2178   2.367   0.088   7.017
   17DPPC   H6Y 2179   2.301   0.145   6.861
   17DPPC   C37 2180   2.151   0.108   7.017
   17DPPC   H7X 2181   2.125   0.159   7.112
   17DPPC   H7Y 2182   2.154  -0.001   7.037
   17DPPC   C38 2183   2.040   0.135   6.914
   17DPPC   H8X 2184   2.046   0.242   6.885
   17DPPC   H8Y 2185   1.941   0.119   6.962
   17DPPC   C39 2186   2.051   0.043   6.791
   17DPPC   H9X 2187   2.030  -0.061   6.822
   17DPPC   H9Y 2188   2.155   0.045   6.752
   17DPPC  C310 2189   1.959   0.079   6.672
   17DPPC  H10X 2190   1.855   0.044   6.693
   17DPPC  H10Y 2191   1.996   0.022   6.584
   17DPPC  C311 2192   1.960   0.228   6.640
   17DPPC  H11X 2193   2.063   0.268   6.656
   17DPPC  H11Y 2194   1.893   0.280   6.712
   17DPPC  C312 2195   1.915   0.267   6.498
   17DPPC  H12X 2196   1.919   0.377   6.493
   17DPPC  H12Y 2197   1.808   0.235   6.486
   17DPPC  C313 2198   1.993   0.211   6.378
   17DPPC  H13X 2199   1.950   0.253   6.284
   17DPPC  H13Y 2200   1.971   0.102   6.375
   17DPPC  C314 2201   2.146   0.227   6.377
   17DPPC  H14X 2202   2.185   0.204   6.275
   17DPPC  H14Y 2203   2.183   0.146   6.445
   17DPPC  C315 2204   2.216   0.355   6.430
   17DPPC  H15X 2205   2.320   0.317   6.443
   17DPPC  H15Y 2206   2.182   0.383   6.532
   17DPPC  C316 2207   2.228   0.479   6.341
   17DPPC  H16X 2208   2.212   0.456   6.234
   17DPPC  H16Y 2209   2.330   0.522   6.350
   17DPPC  H16Z 2210   2.160   0.560   6.374
   18DPPC     N 2211   1.789   4.184   8.293
   18DPPC   C13 2212   1.935   4.217   8.290
   18DPPC  H13A 2213   1.972   4.199   8.189
   18DPPC  H13B 2214   1.992   4.157   8.360
   18DPPC  H13C 2215   1.952   4.321   8.314
   18DPPC   C14 2216   1.778   4.040   8.252
   18DPPC  H14A 2217   1.823   3.972   8.321
   18DPPC  H14B 2218   1.826   4.027   8.153
   18DPPC  H14C 2219   1.675   4.015   8.231
   18DPPC   C15 2220   1.731   4.209   8.428
   18DPPC  H15A 2221   1.625   4.186   8.434
   18DPPC  H15B 2222   1.745   4.313   8.458
   18DPPC  H15C 2223   1.777   4.150   8.506
   18DPPC   C12 2224   1.714   4.270   8.192
   18DPPC  H12A 2225   1.719   4.373   8.223
   18DPPC  H12B 2226   1.610   4.240   8.194
   18DPPC   C11 2227   1.755   4.262   8.043
   18DPPC  H11A 2228   1.859   4.300   8.034
   18DPPC  H11B 2229   1.690   4.330   7.983
   18DPPC     P 2230   1.830   4.062   7.886
   18DPPC   O13 2231   1.771   4.079   7.751
   18DPPC   O14 2232   1.867   3.928   7.936
   18DPPC   O11 2233   1.957   4.156   7.897
   18DPPC   O12 2234   1.736   4.130   7.994
   18DPPC    C1 2235   2.081   4.106   7.947
   18DPPC    HA 2236   2.069   4.023   8.021
   18DPPC    HB 2237   2.129   4.190   8.002
   18DPPC    C2 2238   2.175   4.062   7.832
   18DPPC    HS 2239   2.276   4.048   7.875
   18DPPC   O21 2240   2.179   4.160   7.728
   18DPPC   C21 2241   2.226   4.279   7.760
   18DPPC   O22 2242   2.294   4.302   7.858
   18DPPC   C22 2243   2.184   4.378   7.652
   18DPPC   H2R 2244   2.214   4.480   7.684
   18DPPC   H2S 2245   2.074   4.373   7.645
   18DPPC    C3 2246   2.136   3.924   7.768
   18DPPC    HX 2247   2.121   3.854   7.852
   18DPPC    HY 2248   2.223   3.890   7.708
   18DPPC   O31 2249   2.017   3.923   7.688
   18DPPC   C31 2250   2.030   3.969   7.565
   18DPPC   O32 2251   2.137   4.000   7.514
   18DPPC   C32 2252   1.895   3.969   7.492
   18DPPC   H2X 2253   1.856   4.073   7.496
   18DPPC   H2Y 2254   1.824   3.904   7.546
   18DPPC   C23 2255   2.249   4.341   7.516
   18DPPC   H3R 2256   2.266   4.231   7.508
   18DPPC   H3S 2257   2.349   4.389   7.516
   18DPPC   C24 2258   2.171   4.382   7.389
   18DPPC   H4R 2259   2.245   4.386   7.306
   18DPPC   H4S 2260   2.128   4.484   7.399
   18DPPC   C25 2261   2.065   4.279   7.344
   18DPPC   H5R 2262   1.970   4.297   7.399
   18DPPC   H5S 2263   2.102   4.179   7.373
   18DPPC   C26 2264   2.040   4.268   7.192
   18DPPC   H6R 2265   2.002   4.364   7.152
   18DPPC   H6S 2266   1.960   4.192   7.178
   18DPPC   C27 2267   2.164   4.221   7.112
   18DPPC   H7R 2268   2.212   4.138   7.169
   18DPPC   H7S 2269   2.237   4.303   7.106
   18DPPC   C28 2270   2.132   4.170   6.970
   18DPPC   H8R 2271   2.083   4.250   6.910
   18DPPC   H8S 2272   2.058   4.088   6.981
   18DPPC   C29 2273   2.254   4.114   6.895
   18DPPC   H9R 2274   2.223   4.020   6.843
   18DPPC   H9S 2275   2.332   4.085   6.970
   18DPPC  C210 2276   2.315   4.206   6.788
   18DPPC  H10R 2277   2.414   4.163   6.759
   18DPPC  H10S 2278   2.333   4.308   6.829
   18DPPC  C211 2279   2.228   4.214   6.661
   18DPPC  H11R 2280   2.144   4.284   6.681
   18DPPC  H11S 2281   2.184   4.114   6.641
   18DPPC  C212 2282   2.304   4.256   6.534
   18DPPC  H12R 2283   2.395   4.193   6.523
   18DPPC  H12S 2284   2.337   4.362   6.543
   18DPPC  C213 2285   2.218   4.240   6.406
   18DPPC  H13R 2286   2.183   4.135   6.399
   18DPPC  H13S 2287   2.280   4.261   6.316
   18DPPC  C214 2288   2.096   4.333   6.407
   18DPPC  H14R 2289   2.131   4.439   6.402
   18DPPC  H14S 2290   2.044   4.319   6.504
   18DPPC  C215 2291   1.990   4.307   6.300
   18DPPC  H15R 2292   1.894   4.348   6.339
   18DPPC  H15S 2293   1.978   4.197   6.288
   18DPPC  C216 2294   2.015   4.372   6.164
   18DPPC  H16R 2295   2.099   4.321   6.112
   18DPPC  H16S 2296   2.039   4.479   6.176
   18DPPC  H16T 2297   1.925   4.366   6.100
   18DPPC   C33 2298   1.912   3.922   7.346
   18DPPC   H3X 2299   1.943   3.816   7.344
   18DPPC   H3Y 2300   1.994   3.982   7.298
   18DPPC   C34 2301   1.790   3.933   7.255
   18DPPC   H4X 2302   1.748   4.036   7.262
   18DPPC   H4Y 2303   1.711   3.862   7.289
   18DPPC   C35 2304   1.833   3.903   7.111
   18DPPC   H5X 2305   1.882   3.804   7.105
   18DPPC   H5Y 2306   1.908   3.980   7.082
   18DPPC   C36 2307   1.718   3.907   7.011
   18DPPC   H6X 2308   1.642   3.977   7.051
   18DPPC   H6Y 2309   1.670   3.806   7.005
   18DPPC   C37 2310   1.758   3.956   6.871
   18DPPC   H7X 2311   1.771   4.066   6.871
   18DPPC   H7Y 2312   1.673   3.932   6.803
   18DPPC   C38 2313   1.882   3.891   6.808
   18DPPC   H8X 2314   1.887   3.784   6.839
   18DPPC   H8Y 2315   1.975   3.941   6.844
   18DPPC   C39 2316   1.872   3.900   6.655
   18DPPC   H9X 2317   1.867   4.007   6.625
   18DPPC   H9Y 2318   1.774   3.854   6.630
   18DPPC  C310 2319   1.984   3.830   6.577
   18DPPC  H10X 2320   1.995   3.726   6.616
   18DPPC  H10Y 2321   2.080   3.883   6.597
   18DPPC  C311 2322   1.958   3.824   6.425
   18DPPC  H11X 2323   2.044   3.773   6.376
   18DPPC  H11Y 2324   1.953   3.928   6.386
   18DPPC  C312 2325   1.829   3.749   6.391
   18DPPC  H12X 2326   1.744   3.798   6.442
   18DPPC  H12Y 2327   1.837   3.645   6.430
   18DPPC  C313 2328   1.788   3.740   6.243
   18DPPC  H13X 2329   1.860   3.674   6.188
   18DPPC  H13Y 2330   1.793   3.840   6.197
   18DPPC  C314 2331   1.646   3.682   6.232
   18DPPC  H14X 2332   1.583   3.726   6.313
   18DPPC  H14Y 2333   1.652   3.573   6.252
   18DPPC  C315 2334   1.572   3.706   6.099
   18DPPC  H15X 2335   1.477   3.646   6.103
   18DPPC  H15Y 2336   1.632   3.667   6.015
   18DPPC  C316 2337   1.537   3.852   6.073
   18DPPC  H16X 2338   1.472   3.861   5.983
   18DPPC  H16Y 2339   1.630   3.909   6.054
   18DPPC  H16Z 2340   1.486   3.896   6.160
   19DPPC     N 2341   0.150   2.110   8.136
   19DPPC   C13 2342   0.108   2.057   8.270
   19DPPC  H13A 2343   0.150   2.118   8.350
   19DPPC  H13B 2344   0.144   1.956   8.283
   19DPPC  H13C 2345   0.001   2.062   8.282
   19DPPC   C14 2346   0.298   2.089   8.129
   19DPPC  H14A 2347   0.338   2.139   8.040
   19DPPC  H14B 2348   0.324   1.985   8.131
   19DPPC  H14C 2349   0.345   2.141   8.212
   19DPPC   C15 2350   0.083   2.036   8.025
   19DPPC  H15A 2351   0.118   2.069   7.928
   19DPPC  H15B 2352  -0.024   2.052   8.027
   19DPPC  H15C 2353   0.101   1.929   8.033
   19DPPC   C12 2354   0.122   2.260   8.134
   19DPPC  H12A 2355   0.155   2.298   8.230
   19DPPC  H12B 2356   0.016   2.282   8.127
   19DPPC   C11 2357   0.202   2.348   8.036
   19DPPC  H11A 2358   0.154   2.448   8.028
   19DPPC  H11B 2359   0.202   2.301   7.935
   19DPPC     P 2360   0.456   2.413   8.009
   19DPPC   O13 2361   0.568   2.321   8.040
   19DPPC   O14 2362   0.473   2.554   8.051
   19DPPC   O11 2363   0.408   2.392   7.858
   19DPPC   O12 2364   0.332   2.361   8.091
   19DPPC    C1 2365   0.452   2.270   7.793
   19DPPC    HA 2366   0.437   2.182   7.860
   19DPPC    HB 2367   0.560   2.276   7.770
   19DPPC    C2 2368   0.373   2.239   7.662
   19DPPC    HS 2369   0.384   2.129   7.645
   19DPPC   O21 2370   0.422   2.313   7.550
   19DPPC   C21 2371   0.528   2.258   7.494
   19DPPC   O22 2372   0.588   2.160   7.535
   19DPPC   C22 2373   0.562   2.334   7.367
   19DPPC   H2R 2374   0.662   2.298   7.335
   19DPPC   H2S 2375   0.567   2.442   7.391
   19DPPC    C3 2376   0.220   2.264   7.672
   19DPPC    HX 2377   0.206   2.365   7.717
   19DPPC    HY 2378   0.173   2.190   7.740
   19DPPC   O31 2379   0.158   2.264   7.541
   19DPPC   C31 2380   0.152   2.145   7.482
   19DPPC   O32 2381   0.172   2.039   7.538
   19DPPC   C32 2382   0.114   2.162   7.334
   19DPPC   H2X 2383   0.192   2.222   7.284
   19DPPC   H2Y 2384   0.019   2.219   7.330
   19DPPC   C23 2385   0.460   2.314   7.254
   19DPPC   H3R 2386   0.365   2.365   7.283
   19DPPC   H3S 2387   0.437   2.206   7.239
   19DPPC   C24 2388   0.512   2.371   7.122
   19DPPC   H4R 2389   0.600   2.310   7.090
   19DPPC   H4S 2390   0.547   2.475   7.138
   19DPPC   C25 2391   0.408   2.373   7.010
   19DPPC   H5R 2392   0.358   2.273   7.001
   19DPPC   H5S 2393   0.463   2.390   6.914
   19DPPC   C26 2394   0.303   2.483   7.029
   19DPPC   H6R 2395   0.354   2.581   7.041
   19DPPC   H6S 2396   0.246   2.464   7.123
   19DPPC   C27 2397   0.203   2.493   6.913
   19DPPC   H7R 2398   0.119   2.561   6.941
   19DPPC   H7S 2399   0.160   2.392   6.895
   19DPPC   C28 2400   0.268   2.545   6.784
   19DPPC   H8R 2401   0.367   2.498   6.772
   19DPPC   H8S 2402   0.286   2.655   6.792
   19DPPC   C29 2403   0.187   2.514   6.658
   19DPPC   H9R 2404   0.092   2.570   6.658
   19DPPC   H9S 2405   0.157   2.408   6.659
   19DPPC  C210 2406   0.268   2.547   6.531
   19DPPC  H10R 2407   0.306   2.651   6.535
   19DPPC  H10S 2408   0.200   2.538   6.443
   19DPPC  C211 2409   0.385   2.450   6.506
   19DPPC  H11R 2410   0.465   2.463   6.581
   19DPPC  H11S 2411   0.429   2.470   6.406
   19DPPC  C212 2412   0.334   2.306   6.510
   19DPPC  H12R 2413   0.240   2.300   6.451
   19DPPC  H12S 2414   0.311   2.277   6.615
   19DPPC  C213 2415   0.432   2.204   6.456
   19DPPC  H13R 2416   0.522   2.206   6.520
   19DPPC  H13S 2417   0.464   2.231   6.353
   19DPPC  C214 2418   0.367   2.067   6.458
   19DPPC  H14R 2419   0.268   2.073   6.406
   19DPPC  H14S 2420   0.348   2.038   6.564
   19DPPC  C215 2421   0.450   1.959   6.390
   19DPPC  H15R 2422   0.403   1.863   6.419
   19DPPC  H15S 2423   0.552   1.960   6.432
   19DPPC  C216 2424   0.459   1.973   6.239
   19DPPC  H16R 2425   0.533   2.052   6.214
   19DPPC  H16S 2426   0.361   2.004   6.196
   19DPPC  H16T 2427   0.493   1.879   6.191
   19DPPC   C33 2428   0.097   2.026   7.263
   19DPPC   H3X 2429   0.032   1.964   7.329
   19DPPC   H3Y 2430   0.195   1.975   7.253
   19DPPC   C34 2431   0.025   2.029   7.127
   19DPPC   H4X 2432  -0.065   2.094   7.134
   19DPPC   H4Y 2433  -0.010   1.926   7.104
   19DPPC   C35 2434   0.112   2.074   7.008
   19DPPC   H5X 2435   0.205   2.013   7.004
   19DPPC   H5Y 2436   0.141   2.180   7.022
   19DPPC   C36 2437   0.036   2.057   6.875
   19DPPC   H6X 2438  -0.061   2.112   6.883
   19DPPC   H6Y 2439   0.013   1.950   6.859
   19DPPC   C37 2440   0.112   2.112   6.753
   19DPPC   H7X 2441   0.204   2.053   6.737
   19DPPC   H7Y 2442   0.143   2.216   6.778
   19DPPC   C38 2443   0.028   2.117   6.624
   19DPPC   H8X 2444   0.079   2.186   6.554
   19DPPC   H8Y 2445  -0.072   2.161   6.646
   19DPPC   C39 2446   0.011   1.982   6.554
   19DPPC   H9X 2447  -0.034   1.909   6.625
   19DPPC   H9Y 2448   0.112   1.943   6.527
   19DPPC  C310 2449  -0.075   1.986   6.427
   19DPPC  H10X 2450  -0.180   2.011   6.455
   19DPPC  H10Y 2451  -0.076   1.884   6.382
   19DPPC  C311 2452  -0.028   2.085   6.320
   19DPPC  H11X 2453   0.073   2.056   6.285
   19DPPC  H11Y 2454  -0.022   2.188   6.361
   19DPPC  C312 2455  -0.124   2.087   6.200
   19DPPC  H12X 2456  -0.224   2.122   6.235
   19DPPC  H12Y 2457  -0.137   1.983   6.162
   19DPPC  C313 2458  -0.075   2.176   6.086
   19DPPC  H13X 2459  -0.043   2.276   6.124
   19DPPC  H13Y 2460  -0.161   2.192   6.018
   19DPPC  C314 2461   0.037   2.113   6.003
   19DPPC  H14X 2462   0.019   2.004   5.998
   19DPPC  H14Y 2463   0.136   2.128   6.051
   19DPPC  C315 2464   0.036   2.167   5.860
   19DPPC  H15X 2465  -0.069   2.163   5.822
   19DPPC  H15Y 2466   0.096   2.101   5.795
   19DPPC  C316 2467   0.089   2.310   5.849
   19DPPC  H16X 2468   0.031   2.381   5.912
   19DPPC  H16Y 2469   0.085   2.343   5.743
   19DPPC  H16Z 2470   0.194   2.314   5.882
   20DPPC     N 2471   0.889   0.741   8.256
   20DPPC   C13 2472   0.969   0.648   8.338
   20DPPC  H13A 2473   0.914   0.619   8.427
   20DPPC  H13B 2474   1.063   0.692   8.368
   20DPPC  H13C 2475   0.989   0.555   8.284
   20DPPC   C14 2476   0.764   0.677   8.205
   20DPPC  H14A 2477   0.783   0.584   8.153
   20DPPC  H14B 2478   0.718   0.747   8.134
   20DPPC  H14C 2479   0.691   0.661   8.283
   20DPPC   C15 2480   0.850   0.860   8.338
   20DPPC  H15A 2481   0.775   0.834   8.410
   20DPPC  H15B 2482   0.808   0.935   8.269
   20DPPC  H15C 2483   0.938   0.903   8.385
   20DPPC   C12 2484   0.969   0.793   8.137
   20DPPC  H12A 2485   1.022   0.713   8.089
   20DPPC  H12B 2486   1.043   0.864   8.173
   20DPPC   C11 2487   0.888   0.868   8.028
   20DPPC  H11A 2488   0.858   0.795   7.948
   20DPPC  H11B 2489   0.958   0.941   7.985
   20DPPC     P 2490   0.684   1.015   7.973
   20DPPC   O13 2491   0.615   1.122   8.048
   20DPPC   O14 2492   0.604   0.911   7.906
   20DPPC   O11 2493   0.791   1.079   7.873
   20DPPC   O12 2494   0.776   0.939   8.077
   20DPPC    C1 2495   0.829   1.216   7.901
   20DPPC    HA 2496   0.852   1.231   8.010
   20DPPC    HB 2497   0.744   1.286   7.877
   20DPPC    C2 2498   0.954   1.269   7.824
   20DPPC    HS 2499   0.968   1.374   7.857
   20DPPC   O21 2500   0.950   1.268   7.681
   20DPPC   C21 2501   0.850   1.231   7.606
   20DPPC   O22 2502   0.732   1.223   7.633
   20DPPC   C22 2503   0.911   1.194   7.471
   20DPPC   H2R 2504   0.927   1.084   7.474
   20DPPC   H2S 2505   1.010   1.242   7.460
   20DPPC    C3 2506   1.087   1.194   7.859
   20DPPC    HX 2507   1.110   1.216   7.965
   20DPPC    HY 2508   1.171   1.235   7.798
   20DPPC   O31 2509   1.080   1.051   7.846
   20DPPC   C31 2510   1.092   0.993   7.729
   20DPPC   O32 2511   1.115   1.047   7.623
   20DPPC   C32 2512   1.089   0.840   7.750
   20DPPC   H2X 2513   1.072   0.819   7.857
   20DPPC   H2Y 2514   1.190   0.805   7.727
   20DPPC   C23 2515   0.822   1.226   7.351
   20DPPC   H3R 2516   0.833   1.332   7.320
   20DPPC   H3S 2517   0.715   1.210   7.378
   20DPPC   C24 2518   0.855   1.130   7.236
   20DPPC   H4R 2519   0.782   1.141   7.154
   20DPPC   H4S 2520   0.842   1.026   7.276
   20DPPC   C25 2521   0.997   1.143   7.180
   20DPPC   H5R 2522   1.011   1.055   7.113
   20DPPC   H5S 2523   1.074   1.136   7.260
   20DPPC   C26 2524   1.017   1.271   7.098
   20DPPC   H6R 2525   1.040   1.355   7.167
   20DPPC   H6S 2526   0.922   1.296   7.047
   20DPPC   C27 2527   1.126   1.259   6.991
   20DPPC   H7R 2528   1.224   1.237   7.039
   20DPPC   H7S 2529   1.135   1.358   6.940
   20DPPC   C28 2530   1.098   1.152   6.884
   20DPPC   H8R 2531   0.995   1.165   6.846
   20DPPC   H8S 2532   1.105   1.050   6.929
   20DPPC   C29 2533   1.195   1.159   6.766
   20DPPC   H9R 2534   1.299   1.144   6.802
   20DPPC   H9S 2535   1.189   1.260   6.721
   20DPPC  C210 2536   1.162   1.055   6.659
   20DPPC  H10R 2537   1.061   1.081   6.618
   20DPPC  H10S 2538   1.154   0.953   6.703
   20DPPC  C211 2539   1.264   1.054   6.545
   20DPPC  H11R 2540   1.348   0.986   6.569
   20DPPC  H11S 2541   1.308   1.156   6.535
   20DPPC  C212 2542   1.200   1.015   6.412
   20DPPC  H12R 2543   1.102   1.064   6.399
   20DPPC  H12S 2544   1.178   0.905   6.416
   20DPPC  C213 2545   1.287   1.044   6.290
   20DPPC  H13R 2546   1.232   1.003   6.203
   20DPPC  H13S 2547   1.382   0.988   6.307
   20DPPC  C214 2548   1.327   1.187   6.254
   20DPPC  H14R 2549   1.437   1.197   6.260
   20DPPC  H14S 2550   1.283   1.257   6.328
   20DPPC  C215 2551   1.283   1.232   6.113
   20DPPC  H15R 2552   1.265   1.342   6.119
   20DPPC  H15S 2553   1.186   1.184   6.087
   20DPPC  C216 2554   1.383   1.209   6.000
   20DPPC  H16R 2555   1.339   1.237   5.902
   20DPPC  H16S 2556   1.417   1.104   5.995
   20DPPC  H16T 2557   1.473   1.273   6.015
   20DPPC   C33 2558   0.991   0.755   7.667
   20DPPC   H3X 2559   0.929   0.819   7.600
   20DPPC   H3Y 2560   0.918   0.709   7.737
   20DPPC   C34 2561   1.063   0.644   7.589
   20DPPC   H4X 2562   1.033   0.544   7.627
   20DPPC   H4Y 2563   1.174   0.649   7.603
   20DPPC   C35 2564   1.034   0.651   7.439
   20DPPC   H5X 2565   0.925   0.637   7.423
   20DPPC   H5Y 2566   1.087   0.568   7.387
   20DPPC   C36 2567   1.078   0.785   7.380
   20DPPC   H6X 2568   1.183   0.807   7.411
   20DPPC   H6Y 2569   1.015   0.868   7.418
   20DPPC   C37 2570   1.071   0.787   7.227
   20DPPC   H7X 2571   1.148   0.719   7.188
   20DPPC   H7Y 2572   1.100   0.888   7.191
   20DPPC   C38 2573   0.932   0.751   7.174
   20DPPC   H8X 2574   0.859   0.819   7.223
   20DPPC   H8Y 2575   0.902   0.648   7.202
   20DPPC   C39 2576   0.919   0.767   7.023
   20DPPC   H9X 2577   0.960   0.678   6.971
   20DPPC   H9Y 2578   0.979   0.855   6.991
   20DPPC  C310 2579   0.773   0.791   6.985
   20DPPC  H10X 2580   0.739   0.881   7.042
   20DPPC  H10Y 2581   0.709   0.706   7.017
   20DPPC  C311 2582   0.755   0.820   6.836
   20DPPC  H11X 2583   0.765   0.727   6.776
   20DPPC  H11Y 2584   0.836   0.889   6.804
   20DPPC  C312 2585   0.620   0.887   6.811
   20DPPC  H12X 2586   0.599   0.958   6.895
   20DPPC  H12Y 2587   0.538   0.812   6.810
   20DPPC  C313 2588   0.620   0.969   6.683
   20DPPC  H13X 2589   0.702   1.043   6.683
   20DPPC  H13Y 2590   0.525   1.025   6.680
   20DPPC  C314 2591   0.629   0.881   6.558
   20DPPC  H14X 2592   0.560   0.794   6.568
   20DPPC  H14Y 2593   0.732   0.842   6.547
   20DPPC  C315 2594   0.589   0.959   6.432
   20DPPC  H15X 2595   0.650   1.052   6.427
   20DPPC  H15Y 2596   0.483   0.990   6.441
   20DPPC  C316 2597   0.608   0.878   6.305
   20DPPC  H16X 2598   0.576   0.938   6.217
   20DPPC  H16Y 2599   0.547   0.785   6.308
   20DPPC  H16Z 2600   0.715   0.850   6.292
   21DPPC     N 2601   0.901   3.977   8.137
   21DPPC   C13 2602   0.779   3.890   8.127
   21DPPC  H13A 2603   0.725   3.888   8.221
   21DPPC  H13B 2604   0.802   3.786   8.104
   21DPPC  H13C 2605   0.708   3.922   8.052
   21DPPC   C14 2606   0.859   4.103   8.205
   21DPPC  H14A 2607   0.823   4.079   8.305
   21DPPC  H14B 2608   0.778   4.153   8.155
   21DPPC  H14C 2609   0.944   4.169   8.217
   21DPPC   C15 2610   0.999   3.909   8.228
   21DPPC  H15A 2611   1.088   3.971   8.241
   21DPPC  H15B 2612   1.040   3.818   8.183
   21DPPC  H15C 2613   0.957   3.890   8.325
   21DPPC   C12 2614   0.969   4.003   8.003
   21DPPC  H12A 2615   0.904   4.060   7.939
   21DPPC  H12B 2616   0.984   3.908   7.951
   21DPPC   C11 2617   1.113   4.064   8.001
   21DPPC  H11A 2618   1.112   4.161   8.055
   21DPPC  H11B 2619   1.142   4.085   7.895
   21DPPC     P 2620   1.257   3.837   8.005
   21DPPC   O13 2621   1.235   3.738   8.113
   21DPPC   O14 2622   1.395   3.846   7.949
   21DPPC   O11 2623   1.147   3.811   7.890
   21DPPC   O12 2624   1.211   3.979   8.061
   21DPPC    C1 2625   1.050   3.706   7.908
   21DPPC    HA 2626   0.987   3.724   7.998
   21DPPC    HB 2627   1.104   3.612   7.931
   21DPPC    C2 2628   0.953   3.667   7.788
   21DPPC    HS 2629   0.919   3.564   7.812
   21DPPC   O21 2630   1.019   3.673   7.659
   21DPPC   C21 2631   0.985   3.575   7.574
   21DPPC   O22 2632   0.893   3.497   7.591
   21DPPC   C22 2633   1.082   3.568   7.457
   21DPPC   H2R 2634   1.161   3.496   7.486
   21DPPC   H2S 2635   1.130   3.667   7.443
   21DPPC    C3 2636   0.824   3.757   7.783
   21DPPC    HX 2637   0.780   3.756   7.885
   21DPPC    HY 2638   0.749   3.706   7.719
   21DPPC   O31 2639   0.851   3.894   7.744
   21DPPC   C31 2640   0.848   3.909   7.611
   21DPPC   O32 2641   0.784   3.840   7.534
   21DPPC   C32 2642   0.945   4.017   7.566
   21DPPC   H2X 2643   1.030   4.021   7.637
   21DPPC   H2Y 2644   0.893   4.115   7.563
   21DPPC   C23 2645   1.015   3.518   7.328
   21DPPC   H3R 2646   0.957   3.601   7.282
   21DPPC   H3S 2647   0.940   3.438   7.352
   21DPPC   C24 2648   1.113   3.456   7.227
   21DPPC   H4R 2649   1.055   3.428   7.138
   21DPPC   H4S 2650   1.154   3.362   7.270
   21DPPC   C25 2651   1.231   3.546   7.185
   21DPPC   H5R 2652   1.292   3.493   7.108
   21DPPC   H5S 2653   1.295   3.559   7.275
   21DPPC   C26 2654   1.196   3.686   7.134
   21DPPC   H6R 2655   1.290   3.746   7.133
   21DPPC   H6S 2656   1.127   3.735   7.207
   21DPPC   C27 2657   1.134   3.695   6.993
   21DPPC   H7R 2658   1.199   3.646   6.918
   21DPPC   H7S 2659   1.128   3.804   6.968
   21DPPC   C28 2660   0.991   3.639   6.985
   21DPPC   H8R 2661   0.938   3.662   7.080
   21DPPC   H8S 2662   0.995   3.529   6.973
   21DPPC   C29 2663   0.907   3.698   6.871
   21DPPC   H9R 2664   0.961   3.686   6.775
   21DPPC   H9S 2665   0.893   3.806   6.890
   21DPPC  C210 2666   0.770   3.630   6.864
   21DPPC  H10R 2667   0.722   3.636   6.964
   21DPPC  H10S 2668   0.786   3.522   6.842
   21DPPC  C211 2669   0.673   3.688   6.760
   21DPPC  H11R 2670   0.646   3.792   6.788
   21DPPC  H11S 2671   0.580   3.627   6.762
   21DPPC  C212 2672   0.728   3.691   6.617
   21DPPC  H12R 2673   0.772   3.591   6.594
   21DPPC  H12S 2674   0.810   3.765   6.611
   21DPPC  C213 2675   0.620   3.724   6.512
   21DPPC  H13R 2676   0.586   3.829   6.527
   21DPPC  H13S 2677   0.532   3.659   6.533
   21DPPC  C214 2678   0.660   3.703   6.365
   21DPPC  H14R 2679   0.585   3.754   6.299
   21DPPC  H14S 2680   0.651   3.594   6.344
   21DPPC  C215 2681   0.802   3.742   6.323
   21DPPC  H15R 2682   0.834   3.669   6.244
   21DPPC  H15S 2683   0.874   3.730   6.407
   21DPPC  C216 2684   0.815   3.882   6.262
   21DPPC  H16R 2685   0.791   3.960   6.336
   21DPPC  H16S 2686   0.748   3.893   6.174
   21DPPC  H16T 2687   0.919   3.899   6.228
   21DPPC   C33 2688   0.997   3.979   7.425
   21DPPC   H3X 2689   0.914   3.986   7.351
   21DPPC   H3Y 2690   1.032   3.874   7.425
   21DPPC   C34 2691   1.113   4.067   7.379
   21DPPC   H4X 2692   1.194   4.063   7.455
   21DPPC   H4Y 2693   1.075   4.172   7.373
   21DPPC   C35 2694   1.168   4.026   7.243
   21DPPC   H5X 2695   1.082   4.010   7.173
   21DPPC   H5Y 2696   1.224   3.930   7.250
   21DPPC   C36 2697   1.259   4.135   7.185
   21DPPC   H6X 2698   1.359   4.132   7.234
   21DPPC   H6Y 2699   1.212   4.233   7.210
   21DPPC   C37 2700   1.272   4.130   7.033
   21DPPC   H7X 2701   1.295   4.234   7.001
   21DPPC   H7Y 2702   1.176   4.099   6.987
   21DPPC   C38 2703   1.387   4.044   6.981
   21DPPC   H8X 2704   1.379   3.940   7.022
   21DPPC   H8Y 2705   1.480   4.090   7.022
   21DPPC   C39 2706   1.398   4.039   6.828
   21DPPC   H9X 2707   1.483   3.973   6.802
   21DPPC   H9Y 2708   1.420   4.141   6.788
   21DPPC  C310 2709   1.276   3.980   6.757
   21DPPC  H10X 2710   1.190   4.050   6.766
   21DPPC  H10Y 2711   1.249   3.885   6.807
   21DPPC  C311 2712   1.301   3.951   6.608
   21DPPC  H11X 2713   1.395   3.893   6.597
   21DPPC  H11Y 2714   1.315   4.047   6.554
   21DPPC  C312 2715   1.185   3.871   6.547
   21DPPC  H12X 2716   1.091   3.926   6.564
   21DPPC  H12Y 2717   1.177   3.774   6.602
   21DPPC  C313 2718   1.200   3.840   6.397
   21DPPC  H13X 2719   1.118   3.771   6.368
   21DPPC  H13Y 2720   1.296   3.787   6.379
   21DPPC  C314 2721   1.192   3.964   6.307
   21DPPC  H14X 2722   1.279   4.030   6.327
   21DPPC  H14Y 2723   1.100   4.021   6.331
   21DPPC  C315 2724   1.191   3.926   6.158
   21DPPC  H15X 2725   1.101   3.865   6.136
   21DPPC  H15Y 2726   1.278   3.859   6.138
   21DPPC  C316 2727   1.196   4.046   6.064
   21DPPC  H16X 2728   1.288   4.106   6.082
   21DPPC  H16Y 2729   1.108   4.112   6.079
   21DPPC  H16Z 2730   1.198   4.013   5.958
   22DPPC     N 2731   4.201   1.854   8.172
   22DPPC   C13 2732   4.330   1.877   8.243
   22DPPC  H13A 2733   4.378   1.779   8.253
   22DPPC  H13B 2734   4.314   1.917   8.343
   22DPPC  H13C 2735   4.395   1.941   8.186
   22DPPC   C14 2736   4.119   1.762   8.257
   22DPPC  H14A 2737   4.038   1.720   8.198
   22DPPC  H14B 2738   4.080   1.812   8.345
   22DPPC  H14C 2739   4.180   1.676   8.287
   22DPPC   C15 2740   4.126   1.982   8.154
   22DPPC  H15A 2741   4.127   2.039   8.245
   22DPPC  H15B 2742   4.022   1.964   8.128
   22DPPC  H15C 2743   4.170   2.042   8.075
   22DPPC   C12 2744   4.228   1.786   8.038
   22DPPC  H12A 2745   4.243   1.861   7.962
   22DPPC  H12B 2746   4.138   1.730   8.009
   22DPPC   C11 2747   4.343   1.684   8.034
   22DPPC  H11A 2748   4.439   1.726   8.072
   22DPPC  H11B 2749   4.367   1.659   7.927
   22DPPC     P 2750   4.214   1.463   8.037
   22DPPC   O13 2751   4.081   1.526   8.014
   22DPPC   O14 2752   4.213   1.334   8.111
   22DPPC   O11 2753   4.294   1.442   7.900
   22DPPC   O12 2754   4.307   1.569   8.111
   22DPPC    C1 2755   4.377   1.325   7.907
   22DPPC    HA 2756   4.306   1.239   7.905
   22DPPC    HB 2757   4.441   1.321   7.998
   22DPPC    C2 2758   4.472   1.295   7.788
   22DPPC    HS 2759   4.577   1.300   7.825
   22DPPC   O21 2760   4.453   1.386   7.679
   22DPPC   C21 2761   4.505   1.508   7.699
   22DPPC   O22 2762   4.574   1.540   7.793
   22DPPC   C22 2763   4.468   1.597   7.579
   22DPPC   H2R 2764   4.396   1.674   7.613
   22DPPC   H2S 2765   4.419   1.533   7.503
   22DPPC    C3 2766   4.447   1.148   7.742
   22DPPC    HX 2767   4.463   1.080   7.828
   22DPPC    HY 2768   4.519   1.119   7.664
   22DPPC   O31 2769   4.311   1.134   7.700
   22DPPC   C31 2770   4.295   1.123   7.570
   22DPPC   O32 2771   4.369   1.063   7.494
   22DPPC   C32 2772   4.168   1.200   7.534
   22DPPC   H2X 2773   4.095   1.145   7.595
   22DPPC   H2Y 2774   4.143   1.187   7.427
   22DPPC   C23 2775   4.592   1.662   7.514
   22DPPC   H3R 2776   4.676   1.589   7.515
   22DPPC   H3S 2777   4.624   1.749   7.575
   22DPPC   C24 2778   4.570   1.705   7.368
   22DPPC   H4R 2779   4.655   1.771   7.340
   22DPPC   H4S 2780   4.476   1.762   7.360
   22DPPC   C25 2781   4.566   1.587   7.270
   22DPPC   H5R 2782   4.471   1.534   7.288
   22DPPC   H5S 2783   4.651   1.519   7.291
   22DPPC   C26 2784   4.571   1.625   7.121
   22DPPC   H6R 2785   4.497   1.704   7.099
   22DPPC   H6S 2786   4.542   1.534   7.065
   22DPPC   C27 2787   4.711   1.666   7.072
   22DPPC   H7R 2788   4.785   1.638   7.150
   22DPPC   H7S 2789   4.716   1.776   7.059
   22DPPC   C28 2790   4.750   1.596   6.941
   22DPPC   H8R 2791   4.753   1.486   6.957
   22DPPC   H8S 2792   4.852   1.629   6.910
   22DPPC   C29 2793   4.652   1.624   6.826
   22DPPC   H9R 2794   4.646   1.734   6.809
   22DPPC   H9S 2795   4.550   1.589   6.855
   22DPPC  C210 2796   4.691   1.552   6.697
   22DPPC  H10R 2797   4.697   1.443   6.718
   22DPPC  H10S 2798   4.792   1.586   6.665
   22DPPC  C211 2799   4.589   1.576   6.586
   22DPPC  H11R 2800   4.503   1.634   6.628
   22DPPC  H11S 2801   4.548   1.479   6.549
   22DPPC  C212 2802   4.647   1.655   6.469
   22DPPC  H12R 2803   4.707   1.741   6.508
   22DPPC  H12S 2804   4.562   1.698   6.411
   22DPPC  C213 2805   4.735   1.571   6.375
   22DPPC  H13R 2806   4.671   1.492   6.329
   22DPPC  H13S 2807   4.813   1.519   6.435
   22DPPC  C214 2808   4.804   1.652   6.265
   22DPPC  H14R 2809   4.848   1.584   6.191
   22DPPC  H14S 2810   4.892   1.702   6.309
   22DPPC  C215 2811   4.714   1.756   6.195
   22DPPC  H15R 2812   4.773   1.807   6.115
   22DPPC  H15S 2813   4.688   1.835   6.270
   22DPPC  C216 2814   4.585   1.704   6.134
   22DPPC  H16R 2815   4.541   1.622   6.194
   22DPPC  H16S 2816   4.602   1.666   6.031
   22DPPC  H16T 2817   4.510   1.787   6.129
   22DPPC   C33 2818   4.147   1.347   7.584
   22DPPC   H3X 2819   4.224   1.379   7.656
   22DPPC   H3Y 2820   4.052   1.351   7.642
   22DPPC   C34 2821   4.133   1.451   7.472
   22DPPC   H4X 2822   4.071   1.412   7.389
   22DPPC   H4Y 2823   4.234   1.473   7.431
   22DPPC   C35 2824   4.070   1.583   7.522
   22DPPC   H5X 2825   4.095   1.598   7.629
   22DPPC   H5Y 2826   3.959   1.575   7.515
   22DPPC   C36 2827   4.116   1.708   7.444
   22DPPC   H6X 2828   4.220   1.732   7.476
   22DPPC   H6Y 2829   4.052   1.794   7.470
   22DPPC   C37 2830   4.116   1.690   7.291
   22DPPC   H7X 2831   4.179   1.604   7.262
   22DPPC   H7Y 2832   4.163   1.780   7.244
   22DPPC   C38 2833   3.976   1.672   7.231
   22DPPC   H8X 2834   3.932   1.773   7.220
   22DPPC   H8Y 2835   3.909   1.617   7.300
   22DPPC   C39 2836   3.980   1.598   7.097
   22DPPC   H9X 2837   3.980   1.488   7.118
   22DPPC   H9Y 2838   4.076   1.623   7.046
   22DPPC  C310 2839   3.865   1.632   7.002
   22DPPC  H10X 2840   3.878   1.737   6.967
   22DPPC  H10Y 2841   3.769   1.625   7.057
   22DPPC  C311 2842   3.857   1.541   6.879
   22DPPC  H11X 2843   3.785   1.583   6.806
   22DPPC  H11Y 2844   3.817   1.443   6.912
   22DPPC  C312 2845   3.992   1.516   6.809
   22DPPC  H12X 2846   4.061   1.463   6.879
   22DPPC  H12Y 2847   4.037   1.615   6.785
   22DPPC  C313 2848   3.980   1.432   6.682
   22DPPC  H13X 2849   3.905   1.477   6.613
   22DPPC  H13Y 2850   3.942   1.331   6.710
   22DPPC  C314 2851   4.114   1.414   6.608
   22DPPC  H14X 2852   4.101   1.338   6.529
   22DPPC  H14Y 2853   4.189   1.373   6.680
   22DPPC  C315 2854   4.171   1.541   6.543
   22DPPC  H15X 2855   4.270   1.517   6.500
   22DPPC  H15Y 2856   4.188   1.617   6.623
   22DPPC  C316 2857   4.083   1.602   6.433
   22DPPC  H16X 2858   3.984   1.632   6.473
   22DPPC  H16Y 2859   4.067   1.529   6.351
   22DPPC  H16Z 2860   4.131   1.693   6.391
   23DPPC     N 2861   2.582   4.152   8.105
   23DPPC   C13 2862   2.554   4.216   7.972
   23DPPC  H13A 2863   2.569   4.325   7.983
   23DPPC  H13B 2864   2.451   4.204   7.939
   23DPPC  H13C 2865   2.623   4.185   7.895
   23DPPC   C14 2866   2.466   4.186   8.194
   23DPPC  H14A 2867   2.373   4.152   8.151
   23DPPC  H14B 2868   2.461   4.296   8.201
   23DPPC  H14C 2869   2.480   4.146   8.293
   23DPPC   C15 2870   2.599   4.004   8.090
   23DPPC  H15A 2871   2.507   3.956   8.060
   23DPPC  H15B 2872   2.632   3.962   8.184
   23DPPC  H15C 2873   2.676   3.981   8.017
   23DPPC   C12 2874   2.712   4.209   8.164
   23DPPC  H12A 2875   2.791   4.196   8.091
   23DPPC  H12B 2876   2.739   4.153   8.253
   23DPPC   C11 2877   2.717   4.358   8.201
   23DPPC  H11A 2878   2.811   4.378   8.259
   23DPPC  H11B 2879   2.633   4.385   8.269
   23DPPC     P 2880   2.825   4.527   8.030
   23DPPC   O13 2881   2.894   4.587   8.146
   23DPPC   O14 2882   2.772   4.617   7.926
   23DPPC   O11 2883   2.917   4.417   7.961
   23DPPC   O12 2884   2.706   4.436   8.084
   23DPPC    C1 2885   2.861   4.324   7.867
   23DPPC    HA 2886   2.751   4.334   7.857
   23DPPC    HB 2887   2.881   4.221   7.904
   23DPPC    C2 2888   2.915   4.336   7.721
   23DPPC    HS 2889   3.018   4.379   7.721
   23DPPC   O21 2890   2.822   4.414   7.644
   23DPPC   C21 2891   2.841   4.546   7.645
   23DPPC   O22 2892   2.938   4.604   7.690
   23DPPC   C22 2893   2.725   4.614   7.571
   23DPPC   H2R 2894   2.772   4.685   7.500
   23DPPC   H2S 2895   2.667   4.671   7.646
   23DPPC    C3 2896   2.922   4.193   7.658
   23DPPC    HX 2897   2.836   4.136   7.699
   23DPPC    HY 2898   3.015   4.141   7.691
   23DPPC   O31 2899   2.906   4.193   7.514
   23DPPC   C31 2900   3.018   4.206   7.443
   23DPPC   O32 2901   3.131   4.189   7.484
   23DPPC   C32 2902   2.982   4.229   7.295
   23DPPC   H2X 2903   2.900   4.157   7.273
   23DPPC   H2Y 2904   3.069   4.202   7.233
   23DPPC   C23 2905   2.633   4.515   7.495
   23DPPC   H3R 2906   2.568   4.462   7.568
   23DPPC   H3S 2907   2.696   4.438   7.444
   23DPPC   C24 2908   2.549   4.585   7.388
   23DPPC   H4R 2909   2.613   4.655   7.331
   23DPPC   H4S 2910   2.470   4.643   7.441
   23DPPC   C25 2911   2.484   4.486   7.290
   23DPPC   H5R 2912   2.394   4.532   7.244
   23DPPC   H5S 2913   2.453   4.395   7.345
   23DPPC   C26 2914   2.578   4.438   7.178
   23DPPC   H6R 2915   2.669   4.401   7.229
   23DPPC   H6S 2916   2.607   4.523   7.113
   23DPPC   C27 2917   2.519   4.323   7.094
   23DPPC   H7R 2918   2.463   4.364   7.008
   23DPPC   H7S 2919   2.448   4.268   7.159
   23DPPC   C28 2920   2.623   4.220   7.047
   23DPPC   H8R 2921   2.571   4.135   6.996
   23DPPC   H8S 2922   2.674   4.179   7.137
   23DPPC   C29 2923   2.730   4.275   6.952
   23DPPC   H9R 2924   2.766   4.372   6.990
   23DPPC   H9S 2925   2.686   4.294   6.851
   23DPPC  C210 2926   2.853   4.183   6.940
   23DPPC  H10R 2927   2.822   4.088   6.893
   23DPPC  H10S 2928   2.891   4.158   7.042
   23DPPC  C211 2929   2.969   4.245   6.860
   23DPPC  H11R 2930   3.005   4.338   6.909
   23DPPC  H11S 2931   2.931   4.276   6.759
   23DPPC  C212 2932   3.086   4.147   6.844
   23DPPC  H12R 2933   3.046   4.049   6.811
   23DPPC  H12S 2934   3.135   4.132   6.942
   23DPPC  C213 2935   3.191   4.192   6.741
   23DPPC  H13R 2936   3.278   4.123   6.751
   23DPPC  H13S 2937   3.226   4.295   6.764
   23DPPC  C214 2938   3.139   4.182   6.598
   23DPPC  H14R 2939   3.086   4.274   6.568
   23DPPC  H14S 2940   3.066   4.099   6.595
   23DPPC  C215 2941   3.249   4.149   6.496
   23DPPC  H15R 2942   3.307   4.061   6.533
   23DPPC  H15S 2943   3.319   4.235   6.491
   23DPPC  C216 2944   3.194   4.117   6.357
   23DPPC  H16R 2945   3.180   4.007   6.345
   23DPPC  H16S 2946   3.264   4.151   6.277
   23DPPC  H16T 2947   3.097   4.167   6.342
   23DPPC   C33 2948   2.933   4.372   7.262
   23DPPC   H3X 2949   2.884   4.420   7.350
   23DPPC   H3Y 2950   2.857   4.361   7.182
   23DPPC   C34 2951   3.039   4.466   7.204
   23DPPC   H4X 2952   3.086   4.417   7.115
   23DPPC   H4Y 2953   3.116   4.479   7.282
   23DPPC   C35 2954   2.991   4.607   7.162
   23DPPC   H5X 2955   3.080   4.672   7.147
   23DPPC   H5Y 2956   2.930   4.651   7.245
   23DPPC   C36 2957   2.909   4.607   7.032
   23DPPC   H6X 2958   2.815   4.553   7.055
   23DPPC   H6Y 2959   2.965   4.549   6.955
   23DPPC   C37 2960   2.873   4.744   6.975
   23DPPC   H7X 2961   2.964   4.806   6.962
   23DPPC   H7Y 2962   2.806   4.796   7.047
   23DPPC   C38 2963   2.800   4.736   6.839
   23DPPC   H8X 2964   2.875   4.723   6.757
   23DPPC   H8Y 2965   2.747   4.832   6.821
   23DPPC   C39 2966   2.700   4.619   6.831
   23DPPC   H9X 2967   2.641   4.619   6.925
   23DPPC   H9Y 2968   2.755   4.522   6.826
   23DPPC  C310 2969   2.600   4.625   6.715
   23DPPC  H10X 2970   2.579   4.732   6.692
   23DPPC  H10Y 2971   2.503   4.579   6.747
   23DPPC  C311 2972   2.646   4.550   6.589
   23DPPC  H11X 2973   2.609   4.445   6.592
   23DPPC  H11Y 2974   2.757   4.547   6.586
   23DPPC  C312 2975   2.595   4.622   6.464
   23DPPC  H12X 2976   2.648   4.720   6.462
   23DPPC  H12Y 2977   2.486   4.642   6.472
   23DPPC  C313 2978   2.625   4.548   6.332
   23DPPC  H13X 2979   2.549   4.469   6.316
   23DPPC  H13Y 2980   2.724   4.499   6.339
   23DPPC  C314 2981   2.627   4.648   6.216
   23DPPC  H14X 2982   2.700   4.728   6.242
   23DPPC  H14Y 2983   2.528   4.696   6.205
   23DPPC  C315 2984   2.670   4.592   6.080
   23DPPC  H15X 2985   2.581   4.586   6.013
   23DPPC  H15Y 2986   2.705   4.488   6.092
   23DPPC  C316 2987   2.776   4.678   6.013
   23DPPC  H16X 2988   2.876   4.663   6.059
   23DPPC  H16Y 2989   2.750   4.785   6.026
   23DPPC  H16Z 2990   2.783   4.656   5.904
   24DPPC     N 2991   3.818   0.683   8.272
   24DPPC   C13 2992   3.863   0.607   8.151
   24DPPC  H13A 2993   3.968   0.586   8.151
   24DPPC  H13B 2994   3.838   0.662   8.059
   24DPPC  H13C 2995   3.809   0.514   8.143
   24DPPC   C14 2996   3.830   0.594   8.390
   24DPPC  H14A 2997   3.760   0.512   8.385
   24DPPC  H14B 2998   3.810   0.647   8.483
   24DPPC  H14C 2999   3.928   0.550   8.397
   24DPPC   C15 3000   3.903   0.805   8.290
   24DPPC  H15A 3001   3.892   0.869   8.202
   24DPPC  H15B 3002   4.006   0.781   8.306
   24DPPC  H15C 3003   3.866   0.864   8.374
   24DPPC   C12 3004   3.673   0.729   8.252
   24DPPC  H12A 3005   3.640   0.782   8.341
   24DPPC  H12B 3006   3.609   0.642   8.240
   24DPPC   C11 3007   3.643   0.820   8.131
   24DPPC  H11A 3008   3.707   0.911   8.134
   24DPPC  H11B 3009   3.537   0.854   8.138
   24DPPC     P 3010   3.694   0.815   7.872
   24DPPC   O13 3011   3.696   0.961   7.894
   24DPPC   O14 3012   3.603   0.758   7.772
   24DPPC   O11 3013   3.841   0.761   7.847
   24DPPC   O12 3014   3.660   0.747   8.010
   24DPPC    C1 3015   3.963   0.832   7.865
   24DPPC    HA 3016   4.040   0.761   7.901
   24DPPC    HB 3017   3.951   0.912   7.942
   24DPPC    C2 3018   4.020   0.901   7.736
   24DPPC    HS 3019   4.109   0.959   7.765
   24DPPC   O21 3020   3.917   0.992   7.695
   24DPPC   C21 3021   3.892   1.034   7.573
   24DPPC   O22 3022   3.941   0.997   7.469
   24DPPC   C22 3023   3.819   1.168   7.585
   24DPPC   H2R 3024   3.889   1.248   7.553
   24DPPC   H2S 3025   3.795   1.185   7.692
   24DPPC    C3 3026   4.063   0.800   7.622
   24DPPC    HX 3027   4.135   0.728   7.666
   24DPPC    HY 3028   4.120   0.857   7.545
   24DPPC   O31 3029   3.952   0.728   7.567
   24DPPC   C31 3030   3.942   0.721   7.436
   24DPPC   O32 3031   4.033   0.727   7.354
   24DPPC   C32 3032   3.795   0.703   7.404
   24DPPC   H2X 3033   3.734   0.725   7.494
   24DPPC   H2Y 3034   3.781   0.597   7.379
   24DPPC   C23 3035   3.694   1.172   7.498
   24DPPC   H3R 3036   3.623   1.246   7.541
   24DPPC   H3S 3037   3.644   1.072   7.499
   24DPPC   C24 3038   3.719   1.217   7.354
   24DPPC   H4R 3039   3.786   1.143   7.305
   24DPPC   H4S 3040   3.771   1.316   7.352
   24DPPC   C25 3041   3.586   1.228   7.281
   24DPPC   H5R 3042   3.525   1.310   7.326
   24DPPC   H5S 3043   3.529   1.133   7.295
   24DPPC   C26 3044   3.598   1.251   7.131
   24DPPC   H6R 3045   3.652   1.346   7.113
   24DPPC   H6S 3046   3.496   1.261   7.089
   24DPPC   C27 3047   3.672   1.135   7.061
   24DPPC   H7R 3048   3.602   1.083   6.992
   24DPPC   H7S 3049   3.704   1.059   7.135
   24DPPC   C28 3050   3.792   1.184   6.981
   24DPPC   H8R 3051   3.866   1.234   7.048
   24DPPC   H8S 3052   3.752   1.259   6.909
   24DPPC   C29 3053   3.860   1.076   6.898
   24DPPC   H9R 3054   3.932   1.124   6.829
   24DPPC   H9S 3055   3.779   1.032   6.835
   24DPPC  C210 3056   3.930   0.963   6.976
   24DPPC  H10R 3057   3.870   0.935   7.065
   24DPPC  H10S 3058   4.026   1.000   7.016
   24DPPC  C211 3059   3.953   0.836   6.890
   24DPPC  H11R 3060   3.867   0.767   6.903
   24DPPC  H11S 3061   4.042   0.782   6.929
   24DPPC  C212 3062   3.967   0.868   6.741
   24DPPC  H12R 3063   4.035   0.955   6.728
   24DPPC  H12S 3064   3.869   0.898   6.700
   24DPPC  C213 3065   4.022   0.757   6.650
   24DPPC  H13R 3066   3.956   0.667   6.654
   24DPPC  H13S 3067   4.122   0.727   6.686
   24DPPC  C214 3068   4.028   0.812   6.507
   24DPPC  H14R 3069   4.063   0.918   6.513
   24DPPC  H14S 3070   3.927   0.815   6.463
   24DPPC  C215 3071   4.122   0.741   6.410
   24DPPC  H15R 3072   4.121   0.798   6.314
   24DPPC  H15S 3073   4.084   0.639   6.388
   24DPPC  C216 3074   4.266   0.734   6.460
   24DPPC  H16R 3075   4.334   0.710   6.376
   24DPPC  H16S 3076   4.276   0.654   6.537
   24DPPC  H16T 3077   4.299   0.830   6.505
   24DPPC   C33 3078   3.746   0.792   7.288
   24DPPC   H3X 3079   3.818   0.788   7.204
   24DPPC   H3Y 3080   3.736   0.897   7.322
   24DPPC   C34 3081   3.613   0.736   7.242
   24DPPC   H4X 3082   3.545   0.726   7.330
   24DPPC   H4Y 3083   3.636   0.635   7.205
   24DPPC   C35 3084   3.539   0.810   7.130
   24DPPC   H5X 3085   3.519   0.915   7.159
   24DPPC   H5Y 3086   3.440   0.760   7.121
   24DPPC   C36 3087   3.610   0.801   6.995
   24DPPC   H6X 3088   3.663   0.704   6.985
   24DPPC   H6Y 3089   3.685   0.881   6.988
   24DPPC   C37 3090   3.510   0.815   6.880
   24DPPC   H7X 3091   3.431   0.887   6.911
   24DPPC   H7Y 3092   3.464   0.714   6.869
   24DPPC   C38 3093   3.564   0.851   6.743
   24DPPC   H8X 3094   3.627   0.942   6.745
   24DPPC   H8Y 3095   3.477   0.874   6.677
   24DPPC   C39 3096   3.637   0.733   6.682
   24DPPC   H9X 3097   3.576   0.642   6.701
   24DPPC   H9Y 3098   3.735   0.717   6.732
   24DPPC  C310 3099   3.655   0.747   6.532
   24DPPC  H10X 3100   3.722   0.832   6.508
   24DPPC  H10Y 3101   3.556   0.768   6.485
   24DPPC  C311 3102   3.709   0.615   6.479
   24DPPC  H11X 3103   3.658   0.536   6.538
   24DPPC  H11Y 3104   3.818   0.606   6.499
   24DPPC  C312 3105   3.680   0.589   6.332
   24DPPC  H12X 3106   3.572   0.604   6.310
   24DPPC  H12Y 3107   3.702   0.481   6.319
   24DPPC  C313 3108   3.767   0.673   6.239
   24DPPC  H13X 3109   3.873   0.666   6.274
   24DPPC  H13Y 3110   3.737   0.780   6.246
   24DPPC  C314 3111   3.763   0.626   6.094
   24DPPC  H14X 3112   3.842   0.678   6.036
   24DPPC  H14Y 3113   3.666   0.655   6.049
   24DPPC  C315 3114   3.781   0.474   6.081
   24DPPC  H15X 3115   3.692   0.422   6.123
   24DPPC  H15Y 3116   3.869   0.444   6.142
   24DPPC  C316 3117   3.798   0.426   5.938
   24DPPC  H16X 3118   3.905   0.437   5.910
   24DPPC  H16Y 3119   3.735   0.484   5.867
   24DPPC  H16Z 3120   3.772   0.318   5.929
   25DPPC     N 3121   1.448   0.386   8.158
   25DPPC   C13 3122   1.426   0.531   8.182
   25DPPC  H13A 3123   1.329   0.557   8.142
   25DPPC  H13B 3124   1.499   0.591   8.130
   25DPPC  H13C 3125   1.426   0.554   8.288
   25DPPC   C14 3126   1.580   0.340   8.214
   25DPPC  H14A 3127   1.597   0.237   8.186
   25DPPC  H14B 3128   1.577   0.347   8.322
   25DPPC  H14C 3129   1.661   0.402   8.179
   25DPPC   C15 3130   1.339   0.310   8.225
   25DPPC  H15A 3131   1.339   0.322   8.332
   25DPPC  H15B 3132   1.344   0.206   8.195
   25DPPC  H15C 3133   1.243   0.345   8.186
   25DPPC   C12 3134   1.439   0.360   8.008
   25DPPC  H12A 3135   1.457   0.254   7.988
   25DPPC  H12B 3136   1.515   0.417   7.957
   25DPPC   C11 3137   1.301   0.387   7.942
   25DPPC  H11A 3138   1.314   0.386   7.831
   25DPPC  H11B 3139   1.266   0.490   7.968
   25DPPC     P 3140   1.223   0.138   7.950
   25DPPC   O13 3141   1.094   0.071   7.969
   25DPPC   O14 3142   1.339   0.088   8.029
   25DPPC   O11 3143   1.265   0.145   7.799
   25DPPC   O12 3144   1.201   0.292   7.982
   25DPPC    C1 3145   1.182   0.194   7.695
   25DPPC    HA 3146   1.238   0.273   7.640
   25DPPC    HB 3147   1.087   0.239   7.732
   25DPPC    C2 3148   1.154   0.078   7.600
   25DPPC    HS 3149   1.079   0.015   7.654
   25DPPC   O21 3150   1.277   0.008   7.575
   25DPPC   C21 3151   1.261  -0.121   7.560
   25DPPC   O22 3152   1.153  -0.178   7.562
   25DPPC   C22 3153   1.396  -0.189   7.539
   25DPPC   H2R 3154   1.379  -0.284   7.484
   25DPPC   H2S 3155   1.434  -0.215   7.640
   25DPPC    C3 3156   1.093   0.121   7.465
   25DPPC    HX 3157   0.991   0.158   7.484
   25DPPC    HY 3158   1.086   0.029   7.402
   25DPPC   O31 3159   1.170   0.227   7.402
   25DPPC   C31 3160   1.138   0.238   7.273
   25DPPC   O32 3161   1.064   0.163   7.213
   25DPPC   C32 3162   1.202   0.359   7.210
   25DPPC   H2X 3163   1.284   0.327   7.143
   25DPPC   H2Y 3164   1.246   0.422   7.291
   25DPPC   C23 3165   1.501  -0.102   7.466
   25DPPC   H3R 3166   1.597  -0.159   7.462
   25DPPC   H3S 3167   1.521  -0.009   7.523
   25DPPC   C24 3168   1.458  -0.067   7.323
   25DPPC   H4R 3169   1.366  -0.005   7.328
   25DPPC   H4S 3170   1.432  -0.161   7.270
   25DPPC   C25 3171   1.564   0.006   7.240
   25DPPC   H5R 3172   1.662  -0.043   7.255
   25DPPC   H5S 3173   1.572   0.112   7.274
   25DPPC   C26 3174   1.530   0.001   7.090
   25DPPC   H6R 3175   1.523  -0.107   7.062
   25DPPC   H6S 3176   1.612   0.046   7.030
   25DPPC   C27 3177   1.397   0.069   7.053
   25DPPC   H7R 3178   1.410   0.179   7.050
   25DPPC   H7S 3179   1.322   0.048   7.132
   25DPPC   C28 3180   1.340   0.018   6.920
   25DPPC   H8R 3181   1.388  -0.080   6.897
   25DPPC   H8S 3182   1.364   0.087   6.837
   25DPPC   C29 3183   1.188  -0.006   6.927
   25DPPC   H9R 3184   1.135   0.090   6.915
   25DPPC   H9S 3185   1.161  -0.047   7.027
   25DPPC  C210 3186   1.139  -0.108   6.822
   25DPPC  H10R 3187   1.028  -0.113   6.828
   25DPPC  H10S 3188   1.175  -0.209   6.848
   25DPPC  C211 3189   1.181  -0.081   6.678
   25DPPC  H11R 3190   1.152  -0.168   6.616
   25DPPC  H11S 3191   1.291  -0.070   6.670
   25DPPC  C212 3192   1.112   0.044   6.625
   25DPPC  H12R 3193   1.144   0.129   6.688
   25DPPC  H12S 3194   1.002   0.035   6.635
   25DPPC  C213 3195   1.147   0.076   6.479
   25DPPC  H13R 3196   1.257   0.082   6.468
   25DPPC  H13S 3197   1.105   0.177   6.458
   25DPPC  C214 3198   1.089  -0.027   6.381
   25DPPC  H14R 3199   0.978  -0.026   6.390
   25DPPC  H14S 3200   1.124  -0.129   6.406
   25DPPC  C215 3201   1.127   0.003   6.235
   25DPPC  H15R 3202   1.068  -0.062   6.168
   25DPPC  H15S 3203   1.234  -0.021   6.220
   25DPPC  C216 3204   1.104   0.149   6.198
   25DPPC  H16R 3205   1.120   0.165   6.090
   25DPPC  H16S 3206   1.175   0.215   6.252
   25DPPC  H16T 3207   1.001   0.181   6.225
   25DPPC   C33 3208   1.096   0.440   7.132
   25DPPC   H3X 3209   1.137   0.542   7.119
   25DPPC   H3Y 3210   1.002   0.449   7.191
   25DPPC   C34 3211   1.064   0.394   6.989
   25DPPC   H4X 3212   0.977   0.454   6.954
   25DPPC   H4Y 3213   1.033   0.287   6.987
   25DPPC   C35 3214   1.181   0.419   6.892
   25DPPC   H5X 3215   1.258   0.340   6.910
   25DPPC   H5Y 3216   1.228   0.517   6.916
   25DPPC   C36 3217   1.144   0.419   6.743
   25DPPC   H6X 3218   1.099   0.322   6.715
   25DPPC   H6Y 3219   1.239   0.430   6.685
   25DPPC   C37 3220   1.046   0.530   6.698
   25DPPC   H7X 3221   1.059   0.621   6.760
   25DPPC   H7Y 3222   0.943   0.492   6.713
   25DPPC   C38 3223   1.068   0.565   6.549
   25DPPC   H8X 3224   1.106   0.472   6.502
   25DPPC   H8Y 3225   1.149   0.641   6.540
   25DPPC   C39 3226   0.944   0.611   6.471
   25DPPC   H9X 3227   0.929   0.720   6.477
   25DPPC   H9Y 3228   0.855   0.563   6.519
   25DPPC  C310 3229   0.948   0.562   6.324
   25DPPC  H10X 3230   0.846   0.533   6.293
   25DPPC  H10Y 3231   1.009   0.470   6.324
   25DPPC  C311 3232   1.001   0.665   6.221
   25DPPC  H11X 3233   1.071   0.733   6.272
   25DPPC  H11Y 3234   0.914   0.730   6.194
   25DPPC  C312 3235   1.064   0.614   6.088
   25DPPC  H12X 3236   1.140   0.687   6.054
   25DPPC  H12Y 3237   0.982   0.620   6.013
   25DPPC  C313 3238   1.124   0.471   6.080
   25DPPC  H13X 3239   1.103   0.427   5.981
   25DPPC  H13Y 3240   1.074   0.405   6.153
   25DPPC  C314 3241   1.276   0.458   6.095
   25DPPC  H14X 3242   1.301   0.377   6.168
   25DPPC  H14Y 3243   1.313   0.554   6.135
   25DPPC  C315 3244   1.358   0.427   5.968
   25DPPC  H15X 3245   1.325   0.495   5.886
   25DPPC  H15Y 3246   1.339   0.324   5.932
   25DPPC  C316 3247   1.507   0.448   5.998
   25DPPC  H16X 3248   1.558   0.507   5.919
   25DPPC  H16Y 3249   1.562   0.354   6.013
   25DPPC  H16Z 3250   1.518   0.505   6.092
   26DPPC     N 3251   3.839   3.550   8.046
   26DPPC   C13 3252   3.805   3.464   8.164
   26DPPC  H13A 3253   3.702   3.429   8.156
   26DPPC  H13B 3254   3.819   3.516   8.258
   26DPPC  H13C 3255   3.865   3.373   8.167
   26DPPC   C14 3256   3.801   3.483   7.918
   26DPPC  H14A 3257   3.697   3.450   7.919
   26DPPC  H14B 3258   3.855   3.390   7.900
   26DPPC  H14C 3259   3.818   3.548   7.834
   26DPPC   C15 3260   3.761   3.677   8.059
   26DPPC  H15A 3261   3.770   3.733   7.967
   26DPPC  H15B 3262   3.808   3.740   8.135
   26DPPC  H15C 3263   3.658   3.658   8.083
   26DPPC   C12 3264   3.988   3.586   8.050
   26DPPC  H12A 3265   4.046   3.494   8.059
   26DPPC  H12B 3266   4.007   3.645   8.140
   26DPPC   C11 3267   4.049   3.668   7.933
   26DPPC  H11A 3268   4.022   3.619   7.837
   26DPPC  H11B 3269   4.160   3.664   7.941
   26DPPC     P 3270   4.051   3.906   8.038
   26DPPC   O13 3271   4.199   3.920   8.039
   26DPPC   O14 3272   3.985   3.872   8.166
   26DPPC   O11 3273   3.991   4.045   7.996
   26DPPC   O12 3274   4.002   3.802   7.929
   26DPPC    C1 3275   3.872   4.053   7.917
   26DPPC    HA 3276   3.805   4.130   7.962
   26DPPC    HB 3277   3.813   3.958   7.913
   26DPPC    C2 3278   3.903   4.098   7.772
   26DPPC    HS 3279   3.807   4.104   7.717
   26DPPC   O21 3280   3.994   4.008   7.705
   26DPPC   C21 3281   3.938   3.897   7.660
   26DPPC   O22 3282   3.818   3.871   7.660
   26DPPC   C22 3283   4.045   3.803   7.602
   26DPPC   H2R 3284   3.997   3.705   7.583
   26DPPC   H2S 3285   4.123   3.789   7.681
   26DPPC    C3 3286   3.965   4.242   7.773
   26DPPC    HX 3287   4.056   4.240   7.836
   26DPPC    HY 3288   3.893   4.313   7.821
   26DPPC   O31 3289   4.004   4.286   7.642
   26DPPC   C31 3290   3.903   4.303   7.558
   26DPPC   O32 3291   3.784   4.297   7.584
   26DPPC   C32 3292   3.960   4.331   7.420
   26DPPC   H2X 3293   4.056   4.276   7.412
   26DPPC   H2Y 3294   3.979   4.440   7.415
   26DPPC   C23 3295   4.110   3.855   7.472
   26DPPC   H3R 3296   4.157   3.954   7.490
   26DPPC   H3S 3297   4.033   3.867   7.393
   26DPPC   C24 3298   4.219   3.759   7.421
   26DPPC   H4R 3299   4.174   3.658   7.404
   26DPPC   H4S 3300   4.296   3.747   7.501
   26DPPC   C25 3301   4.287   3.809   7.293
   26DPPC   H5R 3302   4.394   3.830   7.316
   26DPPC   H5S 3303   4.242   3.905   7.262
   26DPPC   C26 3304   4.284   3.710   7.174
   26DPPC   H6R 3305   4.331   3.615   7.207
   26DPPC   H6S 3306   4.348   3.751   7.093
   26DPPC   C27 3307   4.143   3.682   7.120
   26DPPC   H7R 3308   4.083   3.634   7.200
   26DPPC   H7S 3309   4.151   3.608   7.037
   26DPPC   C28 3310   4.069   3.807   7.069
   26DPPC   H8R 3311   4.063   3.883   7.150
   26DPPC   H8S 3312   3.964   3.779   7.045
   26DPPC   C29 3313   4.133   3.868   6.944
   26DPPC   H9R 3314   4.123   3.795   6.861
   26DPPC   H9S 3315   4.242   3.886   6.961
   26DPPC  C210 3316   4.069   4.002   6.905
   26DPPC  H10R 3317   4.089   4.076   6.985
   26DPPC  H10S 3318   3.958   3.989   6.899
   26DPPC  C211 3319   4.120   4.056   6.771
   26DPPC  H11R 3320   4.232   4.056   6.771
   26DPPC  H11S 3321   4.087   4.162   6.758
   26DPPC  C212 3322   4.068   3.974   6.652
   26DPPC  H12R 3323   3.957   3.972   6.659
   26DPPC  H12S 3324   4.103   3.869   6.661
   26DPPC  C213 3325   4.107   4.027   6.514
   26DPPC  H13R 3326   4.216   4.015   6.498
   26DPPC  H13S 3327   4.082   4.135   6.507
   26DPPC  C214 3328   4.030   3.948   6.407
   26DPPC  H14R 3329   3.921   3.971   6.419
   26DPPC  H14S 3330   4.044   3.840   6.428
   26DPPC  C215 3331   4.068   3.974   6.260
   26DPPC  H15R 3332   3.995   3.918   6.197
   26DPPC  H15S 3333   4.169   3.933   6.241
   26DPPC  C216 3334   4.064   4.121   6.220
   26DPPC  H16R 3335   4.156   4.174   6.256
   26DPPC  H16S 3336   3.976   4.171   6.266
   26DPPC  H16T 3337   4.058   4.133   6.110
   26DPPC   C33 3338   3.863   4.285   7.310
   26DPPC   H3X 3339   3.893   4.328   7.212
   26DPPC   H3Y 3340   3.761   4.323   7.333
   26DPPC   C34 3341   3.861   4.132   7.298
   26DPPC   H4X 3342   3.884   4.085   7.396
   26DPPC   H4Y 3343   3.939   4.099   7.226
   26DPPC   C35 3344   3.724   4.078   7.255
   26DPPC   H5X 3345   3.648   4.107   7.333
   26DPPC   H5Y 3346   3.729   3.967   7.253
   26DPPC   C36 3347   3.676   4.131   7.119
   26DPPC   H6X 3348   3.748   4.099   7.040
   26DPPC   H6Y 3349   3.679   4.241   7.120
   26DPPC   C37 3350   3.534   4.084   7.084
   26DPPC   H7X 3351   3.505   4.126   6.985
   26DPPC   H7Y 3352   3.464   4.125   7.160
   26DPPC   C38 3353   3.519   3.932   7.079
   26DPPC   H8X 3354   3.415   3.907   7.046
   26DPPC   H8Y 3355   3.532   3.889   7.181
   26DPPC   C39 3356   3.620   3.867   6.984
   26DPPC   H9X 3357   3.723   3.885   7.022
   26DPPC   H9Y 3358   3.612   3.917   6.885
   26DPPC  C310 3359   3.600   3.717   6.969
   26DPPC  H10X 3360   3.504   3.698   6.917
   26DPPC  H10Y 3361   3.594   3.670   7.070
   26DPPC  C311 3362   3.715   3.651   6.892
   26DPPC  H11X 3363   3.690   3.543   6.882
   26DPPC  H11Y 3364   3.809   3.658   6.950
   26DPPC  C312 3365   3.738   3.711   6.752
   26DPPC  H12X 3366   3.801   3.801   6.759
   26DPPC  H12Y 3367   3.640   3.741   6.708
   26DPPC  C313 3368   3.802   3.607   6.660
   26DPPC  H13X 3369   3.732   3.521   6.656
   26DPPC  H13Y 3370   3.898   3.574   6.704
   26DPPC  C314 3371   3.826   3.654   6.516
   26DPPC  H14X 3372   3.869   3.756   6.518
   26DPPC  H14Y 3373   3.728   3.658   6.463
   26DPPC  C315 3374   3.919   3.559   6.439
   26DPPC  H15X 3375   3.876   3.457   6.443
   26DPPC  H15Y 3376   4.017   3.556   6.492
   26DPPC  C316 3377   3.942   3.597   6.293
   26DPPC  H16X 3378   4.014   3.526   6.246
   26DPPC  H16Y 3379   3.984   3.699   6.283
   26DPPC  H16Z 3380   3.846   3.592   6.236
   27DPPC     N 3381   4.584   3.152   8.019
   27DPPC   C13 3382   4.512   3.184   8.147
   27DPPC  H13A 3383   4.571   3.248   8.212
   27DPPC  H13B 3384   4.492   3.092   8.203
   27DPPC  H13C 3385   4.416   3.230   8.129
   27DPPC   C14 3386   4.604   3.278   7.940
   27DPPC  H14A 3387   4.642   3.359   8.002
   27DPPC  H14B 3388   4.512   3.311   7.893
   27DPPC  H14C 3389   4.678   3.264   7.860
   27DPPC   C15 3390   4.717   3.098   8.052
   27DPPC  H15A 3391   4.708   3.000   8.100
   27DPPC  H15B 3392   4.774   3.163   8.117
   27DPPC  H15C 3393   4.780   3.085   7.964
   27DPPC   C12 3394   4.507   3.046   7.940
   27DPPC  H12A 3395   4.543   3.048   7.838
   27DPPC  H12B 3396   4.402   3.073   7.938
   27DPPC   C11 3397   4.513   2.898   7.989
   27DPPC  H11A 3398   4.613   2.856   7.964
   27DPPC  H11B 3399   4.439   2.839   7.930
   27DPPC     P 3400   4.344   2.888   8.189
   27DPPC   O13 3401   4.346   2.971   8.310
   27DPPC   O14 3402   4.284   2.753   8.198
   27DPPC   O11 3403   4.270   2.973   8.080
   27DPPC   O12 3404   4.491   2.881   8.129
   27DPPC    C1 3405   4.131   2.955   8.060
   27DPPC    HA 3406   4.077   3.017   8.135
   27DPPC    HB 3407   4.098   2.850   8.070
   27DPPC    C2 3408   4.101   3.009   7.920
   27DPPC    HS 3409   3.991   3.006   7.904
   27DPPC   O21 3410   4.167   2.931   7.818
   27DPPC   C21 3411   4.143   2.800   7.809
   27DPPC   O22 3412   4.051   2.741   7.860
   27DPPC   C22 3413   4.254   2.739   7.721
   27DPPC   H2R 3414   4.334   2.702   7.788
   27DPPC   H2S 3415   4.296   2.820   7.658
   27DPPC    C3 3416   4.147   3.159   7.917
   27DPPC    HX 3417   4.253   3.165   7.949
   27DPPC    HY 3418   4.086   3.212   7.994
   27DPPC   O31 3419   4.131   3.224   7.789
   27DPPC   C31 3420   4.159   3.355   7.792
   27DPPC   O32 3421   4.205   3.414   7.889
   27DPPC   C32 3422   4.128   3.421   7.658
   27DPPC   H2X 3423   4.181   3.519   7.656
   27DPPC   H2Y 3424   4.020   3.443   7.658
   27DPPC   C23 3425   4.203   2.624   7.631
   27DPPC   H3R 3426   4.099   2.646   7.600
   27DPPC   H3S 3427   4.200   2.531   7.691
   27DPPC   C24 3428   4.285   2.602   7.503
   27DPPC   H4R 3429   4.243   2.513   7.451
   27DPPC   H4S 3430   4.391   2.579   7.529
   27DPPC   C25 3431   4.282   2.720   7.404
   27DPPC   H5R 3432   4.347   2.803   7.440
   27DPPC   H5S 3433   4.180   2.762   7.400
   27DPPC   C26 3434   4.321   2.683   7.260
   27DPPC   H6R 3435   4.252   2.605   7.219
   27DPPC   H6S 3436   4.423   2.640   7.262
   27DPPC   C27 3437   4.322   2.805   7.166
   27DPPC   H7R 3438   4.389   2.782   7.080
   27DPPC   H7S 3439   4.366   2.891   7.221
   27DPPC   C28 3440   4.185   2.846   7.106
   27DPPC   H8R 3441   4.103   2.819   7.177
   27DPPC   H8S 3442   4.172   2.788   7.013
   27DPPC   C29 3443   4.173   2.995   7.069
   27DPPC   H9R 3444   4.274   3.031   7.046
   27DPPC   H9S 3445   4.136   3.053   7.157
   27DPPC  C210 3446   4.089   3.026   6.944
   27DPPC  H10R 3447   3.981   3.012   6.969
   27DPPC  H10S 3448   4.115   2.955   6.863
   27DPPC  C211 3449   4.111   3.170   6.891
   27DPPC  H11R 3450   4.103   3.241   6.976
   27DPPC  H11S 3451   4.030   3.195   6.819
   27DPPC  C212 3452   4.244   3.191   6.816
   27DPPC  H12R 3453   4.247   3.135   6.721
   27DPPC  H12S 3454   4.323   3.147   6.880
   27DPPC  C213 3455   4.281   3.340   6.793
   27DPPC  H13R 3456   4.391   3.352   6.807
   27DPPC  H13S 3457   4.230   3.401   6.872
   27DPPC  C214 3458   4.246   3.397   6.655
   27DPPC  H14R 3459   4.258   3.508   6.660
   27DPPC  H14S 3460   4.140   3.377   6.632
   27DPPC  C215 3461   4.338   3.347   6.543
   27DPPC  H15R 3462   4.318   3.239   6.524
   27DPPC  H15S 3463   4.443   3.355   6.578
   27DPPC  C216 3464   4.325   3.425   6.412
   27DPPC  H16R 3465   4.221   3.421   6.373
   27DPPC  H16S 3466   4.393   3.384   6.334
   27DPPC  H16T 3467   4.351   3.532   6.428
   27DPPC   C33 3468   4.165   3.337   7.534
   27DPPC   H3X 3469   4.112   3.381   7.446
   27DPPC   H3Y 3470   4.128   3.232   7.544
   27DPPC   C34 3471   4.315   3.340   7.505
   27DPPC   H4X 3472   4.370   3.303   7.594
   27DPPC   H4Y 3473   4.346   3.446   7.488
   27DPPC   C35 3474   4.360   3.256   7.384
   27DPPC   H5X 3475   4.325   3.151   7.394
   27DPPC   H5Y 3476   4.471   3.255   7.386
   27DPPC   C36 3477   4.316   3.310   7.246
   27DPPC   H6X 3478   4.281   3.415   7.256
   27DPPC   H6Y 3479   4.228   3.252   7.211
   27DPPC   C37 3480   4.426   3.304   7.138
   27DPPC   H7X 3481   4.501   3.384   7.156
   27DPPC   H7Y 3482   4.377   3.325   7.040
   27DPPC   C38 3483   4.498   3.169   7.132
   27DPPC   H8X 3484   4.425   3.090   7.158
   27DPPC   H8Y 3485   4.574   3.165   7.212
   27DPPC   C39 3486   4.565   3.132   6.998
   27DPPC   H9X 3487   4.672   3.162   7.002
   27DPPC   H9Y 3488   4.520   3.189   6.914
   27DPPC  C310 3489   4.552   2.981   6.972
   27DPPC  H10X 3490   4.445   2.955   6.957
   27DPPC  H10Y 3491   4.587   2.928   7.063
   27DPPC  C311 3492   4.630   2.928   6.852
   27DPPC  H11X 3493   4.639   2.817   6.859
   27DPPC  H11Y 3494   4.733   2.969   6.858
   27DPPC  C312 3495   4.571   2.966   6.715
   27DPPC  H12X 3496   4.660   2.995   6.655
   27DPPC  H12Y 3497   4.505   3.054   6.722
   27DPPC  C313 3498   4.506   2.854   6.633
   27DPPC  H13X 3499   4.397   2.848   6.653
   27DPPC  H13Y 3500   4.553   2.760   6.665
   27DPPC  C314 3501   4.535   2.871   6.483
   27DPPC  H14X 3502   4.646   2.871   6.469
   27DPPC  H14Y 3503   4.496   2.968   6.447
   27DPPC  C315 3504   4.483   2.758   6.393
   27DPPC  H15X 3505   4.373   2.759   6.395
   27DPPC  H15Y 3506   4.515   2.660   6.434
   27DPPC  C316 3507   4.531   2.769   6.247
   27DPPC  H16X 3508   4.510   2.871   6.208
   27DPPC  H16Y 3509   4.478   2.696   6.183
   27DPPC  H16Z 3510   4.640   2.751   6.240
   28DPPC     N 3511   3.433  -0.132   8.278
   28DPPC   C13 3512   3.419  -0.150   8.425
   28DPPC  H13A 3513   3.481  -0.079   8.478
   28DPPC  H13B 3514   3.447  -0.250   8.456
   28DPPC  H13C 3515   3.317  -0.131   8.458
   28DPPC   C14 3516   3.577  -0.138   8.240
   28DPPC  H14A 3517   3.584  -0.126   8.131
   28DPPC  H14B 3518   3.621  -0.233   8.267
   28DPPC  H14C 3519   3.636  -0.063   8.289
   28DPPC   C15 3520   3.361  -0.241   8.206
   28DPPC  H15A 3521   3.257  -0.245   8.236
   28DPPC  H15B 3522   3.407  -0.336   8.219
   28DPPC  H15C 3523   3.363  -0.214   8.099
   28DPPC   C12 3524   3.369   0.000   8.233
   28DPPC  H12A 3525   3.399   0.079   8.300
   28DPPC  H12B 3526   3.261  -0.007   8.241
   28DPPC   C11 3527   3.397   0.050   8.090
   28DPPC  H11A 3528   3.506   0.070   8.078
   28DPPC  H11B 3529   3.341   0.145   8.075
   28DPPC     P 3530   3.401  -0.027   7.844
   28DPPC   O13 3531   3.287  -0.050   7.752
   28DPPC   O14 3532   3.519  -0.116   7.834
   28DPPC   O11 3533   3.449   0.126   7.843
   28DPPC   O12 3534   3.351  -0.045   7.994
   28DPPC    C1 3535   3.366   0.230   7.789
   28DPPC    HA 3536   3.355   0.312   7.863
   28DPPC    HB 3537   3.262   0.195   7.766
   28DPPC    C2 3538   3.426   0.290   7.658
   28DPPC    HS 3539   3.356   0.369   7.623
   28DPPC   O21 3540   3.442   0.186   7.560
   28DPPC   C21 3541   3.327   0.146   7.507
   28DPPC   O22 3542   3.220   0.203   7.519
   28DPPC   C22 3543   3.355   0.034   7.408
   28DPPC   H2R 3544   3.268  -0.035   7.414
   28DPPC   H2S 3545   3.445  -0.023   7.439
   28DPPC    C3 3546   3.565   0.358   7.674
   28DPPC    HX 3547   3.626   0.294   7.742
   28DPPC    HY 3548   3.556   0.459   7.722
   28DPPC   O31 3549   3.635   0.367   7.548
   28DPPC   C31 3550   3.568   0.432   7.455
   28DPPC   O32 3551   3.483   0.517   7.473
   28DPPC   C32 3552   3.610   0.377   7.318
   28DPPC   H2X 3553   3.625   0.267   7.327
   28DPPC   H2Y 3554   3.709   0.422   7.299
   28DPPC   C23 3555   3.372   0.098   7.268
   28DPPC   H3R 3556   3.472   0.147   7.265
   28DPPC   H3S 3557   3.295   0.178   7.257
   28DPPC   C24 3558   3.359   0.007   7.146
   28DPPC   H4R 3559   3.301   0.063   7.068
   28DPPC   H4S 3560   3.301  -0.084   7.173
   28DPPC   C25 3561   3.493  -0.033   7.084
   28DPPC   H5R 3562   3.531  -0.116   7.147
   28DPPC   H5S 3563   3.567   0.050   7.089
   28DPPC   C26 3564   3.478  -0.078   6.937
   28DPPC   H6R 3565   3.382  -0.133   6.927
   28DPPC   H6S 3566   3.560  -0.149   6.912
   28DPPC   C27 3567   3.485   0.038   6.837
   28DPPC   H7R 3568   3.591   0.068   6.824
   28DPPC   H7S 3569   3.431   0.126   6.879
   28DPPC   C28 3570   3.423   0.006   6.699
   28DPPC   H8R 3571   3.407  -0.104   6.690
   28DPPC   H8S 3572   3.495   0.032   6.619
   28DPPC   C29 3573   3.292   0.082   6.674
   28DPPC   H9R 3574   3.310   0.191   6.685
   28DPPC   H9S 3575   3.218   0.051   6.751
   28DPPC  C210 3576   3.232   0.055   6.535
   28DPPC  H10R 3577   3.227  -0.055   6.521
   28DPPC  H10S 3578   3.302   0.094   6.458
   28DPPC  C211 3579   3.092   0.115   6.515
   28DPPC  H11R 3580   3.101   0.220   6.480
   28DPPC  H11S 3581   3.040   0.118   6.613
   28DPPC  C212 3582   3.001   0.035   6.418
   28DPPC  H12R 3583   2.910   0.097   6.399
   28DPPC  H12S 3584   2.968  -0.057   6.470
   28DPPC  C213 3585   3.064  -0.003   6.282
   28DPPC  H13R 3586   3.162  -0.054   6.299
   28DPPC  H13S 3587   3.083   0.091   6.225
   28DPPC  C214 3588   2.975  -0.093   6.196
   28DPPC  H14R 3589   2.882  -0.038   6.175
   28DPPC  H14S 3590   2.947  -0.183   6.256
   28DPPC  C215 3591   3.037  -0.141   6.063
   28DPPC  H15R 3592   2.978  -0.230   6.030
   28DPPC  H15S 3593   3.141  -0.177   6.081
   28DPPC  C216 3594   3.035  -0.041   5.946
   28DPPC  H16R 3595   3.094   0.050   5.969
   28DPPC  H16S 3596   2.931  -0.010   5.923
   28DPPC  H16T 3597   3.077  -0.088   5.855
   28DPPC   C33 3598   3.509   0.411   7.206
   28DPPC   H3X 3599   3.476   0.516   7.213
   28DPPC   H3Y 3600   3.415   0.354   7.220
   28DPPC   C34 3601   3.563   0.385   7.063
   28DPPC   H4X 3602   3.510   0.453   6.993
   28DPPC   H4Y 3603   3.539   0.281   7.034
   28DPPC   C35 3604   3.714   0.407   7.047
   28DPPC   H5X 3605   3.766   0.315   7.081
   28DPPC   H5Y 3606   3.749   0.492   7.110
   28DPPC   C36 3607   3.757   0.440   6.905
   28DPPC   H6X 3608   3.864   0.470   6.909
   28DPPC   H6Y 3609   3.700   0.526   6.865
   28DPPC   C37 3610   3.744   0.321   6.810
   28DPPC   H7X 3611   3.640   0.315   6.771
   28DPPC   H7Y 3612   3.766   0.226   6.865
   28DPPC   C38 3613   3.846   0.336   6.698
   28DPPC   H8X 3614   3.947   0.336   6.744
   28DPPC   H8Y 3615   3.833   0.435   6.649
   28DPPC   C39 3616   3.837   0.226   6.592
   28DPPC   H9X 3617   3.849   0.125   6.637
   28DPPC   H9Y 3618   3.920   0.241   6.520
   28DPPC  C310 3619   3.704   0.235   6.517
   28DPPC  H10X 3620   3.672   0.341   6.513
   28DPPC  H10Y 3621   3.625   0.180   6.571
   28DPPC  C311 3622   3.716   0.187   6.373
   28DPPC  H11X 3623   3.800   0.241   6.324
   28DPPC  H11Y 3624   3.625   0.218   6.318
   28DPPC  C312 3625   3.733   0.036   6.364
   28DPPC  H12X 3626   3.665  -0.013   6.438
   28DPPC  H12Y 3627   3.837   0.008   6.390
   28DPPC  C313 3628   3.696  -0.017   6.225
   28DPPC  H13X 3629   3.737   0.046   6.144
   28DPPC  H13Y 3630   3.586  -0.007   6.219
   28DPPC  C314 3631   3.735  -0.162   6.201
   28DPPC  H14X 3632   3.846  -0.170   6.205
   28DPPC  H14Y 3633   3.703  -0.192   6.099
   28DPPC  C315 3634   3.673  -0.258   6.302
   28DPPC  H15X 3635   3.706  -0.232   6.405
   28DPPC  H15Y 3636   3.711  -0.360   6.280
   28DPPC  C316 3637   3.520  -0.258   6.296
   28DPPC  H16X 3638   3.484  -0.280   6.193
   28DPPC  H16Y 3639   3.478  -0.161   6.328
   28DPPC  H16Z 3640   3.479  -0.336   6.364
   29DPPC     N 3641   0.120   3.950   8.129
   29DPPC   C13 3642   0.056   4.064   8.059
   29DPPC  H13A 3643   0.118   4.096   7.975
   29DPPC  H13B 3644   0.051   4.152   8.123
   29DPPC  H13C 3645  -0.045   4.042   8.023
   29DPPC   C14 3646   0.264   3.987   8.155
   29DPPC  H14A 3647   0.315   3.905   8.205
   29DPPC  H14B 3648   0.274   4.079   8.211
   29DPPC  H14C 3649   0.315   3.999   8.060
   29DPPC   C15 3650   0.054   3.919   8.259
   29DPPC  H15A 3651  -0.052   3.907   8.245
   29DPPC  H15B 3652   0.070   3.996   8.334
   29DPPC  H15C 3653   0.097   3.827   8.297
   29DPPC   C12 3654   0.118   3.829   8.037
   29DPPC  H12A 3655   0.171   3.857   7.946
   29DPPC  H12B 3656   0.015   3.808   8.009
   29DPPC   C11 3657   0.183   3.697   8.088
   29DPPC  H11A 3658   0.157   3.614   8.018
   29DPPC  H11B 3659   0.138   3.669   8.185
   29DPPC     P 3660   0.420   3.706   7.978
   29DPPC   O13 3661   0.388   3.583   7.905
   29DPPC   O14 3662   0.561   3.724   8.022
   29DPPC   O11 3663   0.371   3.834   7.899
   29DPPC   O12 3664   0.324   3.710   8.104
   29DPPC    C1 3665   0.456   3.946   7.874
   29DPPC    HA 3666   0.565   3.921   7.888
   29DPPC    HB 3667   0.435   4.030   7.943
   29DPPC    C2 3668   0.444   3.995   7.727
   29DPPC    HS 3669   0.518   4.076   7.713
   29DPPC   O21 3670   0.317   4.042   7.683
   29DPPC   C21 3671   0.238   4.116   7.753
   29DPPC   O22 3672   0.258   4.164   7.863
   29DPPC   C22 3673   0.110   4.133   7.669
   29DPPC   H2R 3674   0.140   4.163   7.567
   29DPPC   H2S 3675   0.054   4.219   7.713
   29DPPC    C3 3676   0.479   3.882   7.629
   29DPPC    HX 3677   0.392   3.812   7.622
   29DPPC    HY 3678   0.566   3.826   7.667
   29DPPC   O31 3679   0.508   3.946   7.505
   29DPPC   C31 3680   0.520   3.864   7.403
   29DPPC   O32 3681   0.502   3.744   7.405
   29DPPC   C32 3682   0.558   3.952   7.283
   29DPPC   H2X 3683   0.626   4.032   7.320
   29DPPC   H2Y 3684   0.464   4.000   7.247
   29DPPC   C23 3685   0.019   4.008   7.665
   29DPPC   H3R 3686  -0.067   4.033   7.599
   29DPPC   H3S 3687  -0.023   3.990   7.766
   29DPPC   C24 3688   0.081   3.878   7.611
   29DPPC   H4R 3689   0.001   3.800   7.613
   29DPPC   H4S 3690   0.161   3.841   7.679
   29DPPC   C25 3691   0.135   3.887   7.467
   29DPPC   H5R 3692   0.233   3.940   7.466
   29DPPC   H5S 3693   0.064   3.948   7.407
   29DPPC   C26 3694   0.150   3.749   7.400
   29DPPC   H6R 3695   0.054   3.694   7.412
   29DPPC   H6S 3696   0.229   3.690   7.452
   29DPPC   C27 3697   0.183   3.758   7.250
   29DPPC   H7R 3698   0.287   3.796   7.237
   29DPPC   H7S 3699   0.114   3.832   7.204
   29DPPC   C28 3700   0.166   3.623   7.178
   29DPPC   H8R 3701   0.069   3.581   7.210
   29DPPC   H8S 3702   0.246   3.552   7.210
   29DPPC   C29 3703   0.165   3.635   7.024
   29DPPC   H9R 3704   0.095   3.717   6.997
   29DPPC   H9S 3705   0.124   3.541   6.979
   29DPPC  C210 3706   0.303   3.662   6.962
   29DPPC  H10R 3707   0.356   3.567   6.942
   29DPPC  H10S 3708   0.363   3.718   7.037
   29DPPC  C211 3709   0.298   3.749   6.835
   29DPPC  H11R 3710   0.400   3.793   6.820
   29DPPC  H11S 3711   0.229   3.835   6.852
   29DPPC  C212 3712   0.260   3.677   6.704
   29DPPC  H12R 3713   0.162   3.626   6.715
   29DPPC  H12S 3714   0.336   3.599   6.681
   29DPPC  C213 3715   0.252   3.777   6.588
   29DPPC  H13R 3716   0.344   3.839   6.589
   29DPPC  H13S 3717   0.166   3.846   6.605
   29DPPC  C214 3718   0.240   3.716   6.447
   29DPPC  H14R 3719   0.152   3.648   6.443
   29DPPC  H14S 3720   0.331   3.656   6.427
   29DPPC  C215 3721   0.227   3.825   6.339
   29DPPC  H15R 3722   0.321   3.885   6.339
   29DPPC  H15S 3723   0.143   3.891   6.368
   29DPPC  C216 3724   0.203   3.776   6.196
   29DPPC  H16R 3725   0.299   3.750   6.147
   29DPPC  H16S 3726   0.156   3.856   6.135
   29DPPC  H16T 3727   0.137   3.687   6.196
   29DPPC   C33 3728   0.626   3.878   7.167
   29DPPC   H3X 3729   0.554   3.803   7.125
   29DPPC   H3Y 3730   0.716   3.821   7.202
   29DPPC   C34 3731   0.668   3.975   7.055
   29DPPC   H4X 3732   0.592   4.055   7.045
   29DPPC   H4Y 3733   0.669   3.918   6.960
   29DPPC   C35 3734   0.807   4.038   7.075
   29DPPC   H5X 3735   0.883   3.957   7.085
   29DPPC   H5Y 3736   0.806   4.095   7.171
   29DPPC   C36 3737   0.849   4.134   6.962
   29DPPC   H6X 3738   0.937   4.194   6.995
   29DPPC   H6Y 3739   0.764   4.204   6.944
   29DPPC   C37 3740   0.883   4.064   6.830
   29DPPC   H7X 3741   0.800   3.994   6.807
   29DPPC   H7Y 3742   0.975   4.003   6.841
   29DPPC   C38 3743   0.900   4.162   6.712
   29DPPC   H8X 3744   1.009   4.184   6.701
   29DPPC   H8Y 3745   0.849   4.258   6.737
   29DPPC   C39 3746   0.845   4.116   6.577
   29DPPC   H9X 3747   0.907   4.031   6.540
   29DPPC   H9Y 3748   0.856   4.199   6.504
   29DPPC  C310 3749   0.699   4.070   6.580
   29DPPC  H10X 3750   0.694   3.974   6.635
   29DPPC  H10Y 3751   0.664   4.049   6.476
   29DPPC  C311 3752   0.599   4.167   6.645
   29DPPC  H11X 3753   0.584   4.253   6.577
   29DPPC  H11Y 3754   0.638   4.205   6.742
   29DPPC  C312 3755   0.467   4.094   6.672
   29DPPC  H12X 3756   0.478   4.032   6.764
   29DPPC  H12Y 3757   0.447   4.024   6.588
   29DPPC  C313 3758   0.348   4.189   6.688
   29DPPC  H13X 3759   0.376   4.273   6.755
   29DPPC  H13Y 3760   0.263   4.134   6.736
   29DPPC  C314 3761   0.296   4.245   6.555
   29DPPC  H14X 3762   0.378   4.295   6.498
   29DPPC  H14Y 3763   0.221   4.322   6.581
   29DPPC  C315 3764   0.228   4.139   6.467
   29DPPC  H15X 3765   0.149   4.089   6.527
   29DPPC  H15Y 3766   0.304   4.063   6.440
   29DPPC  C316 3767   0.165   4.193   6.337
   29DPPC  H16X 3768   0.152   4.303   6.343
   29DPPC  H16Y 3769   0.066   4.146   6.319
   29DPPC  H16Z 3770   0.229   4.170   6.250
   30DPPC     N 3771  -0.111   0.984   8.186
   30DPPC   C13 3772  -0.181   1.033   8.305
   30DPPC  H13A 3773  -0.159   1.140   8.318
   30DPPC  H13B 3774  -0.155   0.987   8.398
   30DPPC  H13C 3775  -0.289   1.033   8.293
   30DPPC   C14 3776  -0.163   1.070   8.078
   30DPPC  H14A 3777  -0.167   1.175   8.109
   30DPPC  H14B 3778  -0.265   1.044   8.051
   30DPPC  H14C 3779  -0.102   1.059   7.989
   30DPPC   C15 3780   0.037   1.006   8.199
   30DPPC  H15A 3781   0.084   0.935   8.267
   30DPPC  H15B 3782   0.060   1.105   8.234
   30DPPC  H15C 3783   0.085   0.988   8.103
   30DPPC   C12 3784  -0.138   0.840   8.146
   30DPPC  H12A 3785  -0.240   0.814   8.172
   30DPPC  H12B 3786  -0.072   0.774   8.202
   30DPPC   C11 3787  -0.120   0.803   7.996
   30DPPC  H11A 3788  -0.192   0.859   7.933
   30DPPC  H11B 3789  -0.148   0.695   7.981
   30DPPC     P 3790   0.125   0.720   7.973
   30DPPC   O13 3791   0.070   0.587   7.940
   30DPPC   O14 3792   0.171   0.734   8.113
   30DPPC   O11 3793   0.238   0.759   7.869
   30DPPC   O12 3794   0.013   0.830   7.952
   30DPPC    C1 3795   0.310   0.881   7.848
   30DPPC    HA 3796   0.409   0.854   7.807
   30DPPC    HB 3797   0.325   0.937   7.943
   30DPPC    C2 3798   0.250   0.972   7.736
   30DPPC    HS 3799   0.151   1.000   7.775
   30DPPC   O21 3800   0.242   0.898   7.615
   30DPPC   C21 3801   0.134   0.827   7.595
   30DPPC   O22 3802   0.034   0.823   7.664
   30DPPC   C22 3803   0.152   0.753   7.463
   30DPPC   H2R 3804   0.073   0.675   7.454
   30DPPC   H2S 3805   0.251   0.703   7.470
   30DPPC    C3 3806   0.328   1.104   7.702
   30DPPC    HX 3807   0.423   1.080   7.650
   30DPPC    HY 3808   0.356   1.152   7.799
   30DPPC   O31 3809   0.244   1.196   7.627
   30DPPC   C31 3810   0.251   1.197   7.492
   30DPPC   O32 3811   0.339   1.149   7.425
   30DPPC   C32 3812   0.126   1.272   7.436
   30DPPC   H2X 3813   0.145   1.380   7.445
   30DPPC   H2Y 3814   0.042   1.249   7.504
   30DPPC   C23 3815   0.152   0.847   7.342
   30DPPC   H3R 3816   0.172   0.952   7.374
   30DPPC   H3S 3817   0.052   0.846   7.293
   30DPPC   C24 3818   0.263   0.810   7.242
   30DPPC   H4R 3819   0.254   0.701   7.221
   30DPPC   H4S 3820   0.363   0.829   7.288
   30DPPC   C25 3821   0.249   0.887   7.110
   30DPPC   H5R 3822   0.139   0.894   7.091
   30DPPC   H5S 3823   0.297   0.830   7.028
   30DPPC   C26 3824   0.302   1.030   7.111
   30DPPC   H6R 3825   0.413   1.029   7.102
   30DPPC   H6S 3826   0.278   1.076   7.208
   30DPPC   C27 3827   0.238   1.115   7.000
   30DPPC   H7R 3828   0.265   1.222   7.016
   30DPPC   H7S 3829   0.127   1.112   7.010
   30DPPC   C28 3830   0.281   1.071   6.860
   30DPPC   H8R 3831   0.231   0.975   6.833
   30DPPC   H8S 3832   0.390   1.052   6.861
   30DPPC   C29 3833   0.253   1.176   6.752
   30DPPC   H9R 3834   0.304   1.271   6.781
   30DPPC   H9S 3835   0.143   1.196   6.750
   30DPPC  C210 3836   0.302   1.133   6.612
   30DPPC  H10R 3837   0.309   1.022   6.612
   30DPPC  H10S 3838   0.403   1.175   6.593
   30DPPC  C211 3839   0.208   1.174   6.498
   30DPPC  H11R 3840   0.208   1.284   6.485
   30DPPC  H11S 3841   0.106   1.144   6.530
   30DPPC  C212 3842   0.239   1.104   6.364
   30DPPC  H12R 3843   0.261   0.996   6.383
   30DPPC  H12S 3844   0.330   1.149   6.319
   30DPPC  C213 3845   0.119   1.111   6.268
   30DPPC  H13R 3846   0.053   1.187   6.314
   30DPPC  H13S 3847   0.063   1.016   6.270
   30DPPC  C214 3848   0.139   1.162   6.123
   30DPPC  H14R 3849   0.172   1.267   6.133
   30DPPC  H14S 3850   0.040   1.165   6.074
   30DPPC  C215 3851   0.234   1.088   6.027
   30DPPC  H15R 3852   0.303   1.020   6.082
   30DPPC  H15S 3853   0.300   1.164   5.978
   30DPPC  C216 3854   0.164   1.016   5.911
   30DPPC  H16R 3855   0.238   0.971   5.842
   30DPPC  H16S 3856   0.102   1.088   5.853
   30DPPC  H16T 3857   0.097   0.936   5.949
   30DPPC   C33 3858   0.074   1.237   7.293
   30DPPC   H3X 3859   0.084   1.128   7.273
   30DPPC   H3Y 3860   0.136   1.291   7.218
   30DPPC   C34 3861  -0.075   1.271   7.273
   30DPPC   H4X 3862  -0.102   1.357   7.338
   30DPPC   H4Y 3863  -0.137   1.186   7.307
   30DPPC   C35 3864  -0.121   1.297   7.129
   30DPPC   H5X 3865  -0.042   1.349   7.071
   30DPPC   H5Y 3866  -0.211   1.362   7.130
   30DPPC   C36 3867  -0.160   1.166   7.059
   30DPPC   H6X 3868  -0.257   1.130   7.102
   30DPPC   H6Y 3869  -0.084   1.088   7.081
   30DPPC   C37 3870  -0.174   1.183   6.908
   30DPPC   H7X 3871  -0.074   1.197   6.863
   30DPPC   H7Y 3872  -0.234   1.274   6.886
   30DPPC   C38 3873  -0.244   1.064   6.842
   30DPPC   H8X 3874  -0.233   1.072   6.733
   30DPPC   H8Y 3875  -0.352   1.075   6.863
   30DPPC   C39 3876  -0.200   0.923   6.886
   30DPPC   H9X 3877  -0.259   0.847   6.831
   30DPPC   H9Y 3878  -0.221   0.910   6.994
   30DPPC  C310 3879  -0.052   0.894   6.859
   30DPPC  H10X 3880   0.007   0.975   6.907
   30DPPC  H10Y 3881  -0.031   0.900   6.750
   30DPPC  C311 3882  -0.007   0.760   6.919
   30DPPC  H11X 3883  -0.059   0.743   7.015
   30DPPC  H11Y 3884   0.102   0.766   6.939
   30DPPC  C312 3885  -0.020   0.641   6.825
   30DPPC  H12X 3886  -0.125   0.625   6.791
   30DPPC  H12Y 3887   0.010   0.551   6.884
   30DPPC  C313 3888   0.075   0.655   6.706
   30DPPC  H13X 3889   0.168   0.707   6.740
   30DPPC  H13Y 3890   0.029   0.719   6.627
   30DPPC  C314 3891   0.117   0.520   6.649
   30DPPC  H14X 3892   0.111   0.442   6.729
   30DPPC  H14Y 3893   0.223   0.525   6.615
   30DPPC  C315 3894   0.032   0.479   6.530
   30DPPC  H15X 3895  -0.075   0.499   6.551
   30DPPC  H15Y 3896   0.039   0.370   6.510
   30DPPC  C316 3897   0.077   0.547   6.403
   30DPPC  H16X 3898   0.187   0.540   6.391
   30DPPC  H16Y 3899   0.047   0.653   6.408
   30DPPC  H16Z 3900   0.030   0.501   6.313
   31DPPC     N 3901   0.742   0.014   8.016
   31DPPC   C13 3902   0.631  -0.057   7.945
   31DPPC  H13A 3903   0.649  -0.064   7.839
   31DPPC  H13B 3904   0.540   0.004   7.955
   31DPPC  H13C 3905   0.609  -0.153   7.987
   31DPPC   C14 3906   0.863  -0.071   8.022
   31DPPC  H14A 3907   0.896  -0.097   7.922
   31DPPC  H14B 3908   0.851  -0.161   8.080
   31DPPC  H14C 3909   0.949  -0.016   8.061
   31DPPC   C15 3910   0.777   0.138   7.940
   31DPPC  H15A 3911   0.865   0.185   7.983
   31DPPC  H15B 3912   0.694   0.208   7.943
   31DPPC  H15C 3913   0.801   0.116   7.836
   31DPPC   C12 3914   0.695   0.056   8.155
   31DPPC  H12A 3915   0.751   0.143   8.186
   31DPPC  H12B 3916   0.714  -0.025   8.224
   31DPPC   C11 3917   0.545   0.090   8.177
   31DPPC  H11A 3918   0.531   0.128   8.280
   31DPPC  H11B 3919   0.492  -0.009   8.171
   31DPPC     P 3920   0.342   0.160   8.039
   31DPPC   O13 3921   0.261   0.122   8.160
   31DPPC   O14 3922   0.356   0.055   7.936
   31DPPC   O11 3923   0.294   0.298   7.980
   31DPPC   O12 3924   0.492   0.187   8.085
   31DPPC    C1 3925   0.385   0.404   7.948
   31DPPC    HA 3926   0.492   0.373   7.947
   31DPPC    HB 3927   0.373   0.487   8.021
   31DPPC    C2 3928   0.356   0.460   7.806
   31DPPC    HS 3929   0.250   0.495   7.806
   31DPPC   O21 3930   0.376   0.354   7.711
   31DPPC   C21 3931   0.319   0.375   7.594
   31DPPC   O22 3932   0.268   0.480   7.558
   31DPPC   C22 3933   0.320   0.246   7.512
   31DPPC   H2R 3934   0.408   0.249   7.444
   31DPPC   H2S 3935   0.228   0.253   7.451
   31DPPC    C3 3936   0.449   0.582   7.777
   31DPPC    HX 3937   0.444   0.649   7.865
   31DPPC    HY 3938   0.409   0.641   7.690
   31DPPC   O31 3939   0.586   0.542   7.762
   31DPPC   C31 3940   0.623   0.519   7.638
   31DPPC   O32 3941   0.557   0.533   7.537
   31DPPC   C32 3942   0.767   0.471   7.638
   31DPPC   H2X 3943   0.797   0.440   7.740
   31DPPC   H2Y 3944   0.825   0.559   7.606
   31DPPC   C23 3945   0.315   0.114   7.592
   31DPPC   H3R 3946   0.220   0.111   7.650
   31DPPC   H3S 3947   0.397   0.112   7.668
   31DPPC   C24 3948   0.325  -0.016   7.510
   31DPPC   H4R 3949   0.299  -0.099   7.580
   31DPPC   H4S 3950   0.430  -0.034   7.479
   31DPPC   C25 3951   0.231  -0.032   7.387
   31DPPC   H5R 3952   0.128  -0.014   7.421
   31DPPC   H5S 3953   0.237  -0.139   7.355
   31DPPC   C26 3954   0.261   0.054   7.263
   31DPPC   H6R 3955   0.224   0.157   7.279
   31DPPC   H6S 3956   0.203   0.015   7.176
   31DPPC   C27 3957   0.408   0.062   7.221
   31DPPC   H7R 3958   0.435  -0.032   7.169
   31DPPC   H7S 3959   0.472   0.070   7.311
   31DPPC   C28 3960   0.437   0.185   7.135
   31DPPC   H8R 3961   0.547   0.194   7.118
   31DPPC   H8S 3962   0.404   0.276   7.188
   31DPPC   C29 3963   0.368   0.175   6.999
   31DPPC   H9R 3964   0.259   0.162   7.015
   31DPPC   H9S 3965   0.407   0.085   6.948
   31DPPC  C210 3966   0.391   0.298   6.911
   31DPPC  H10R 3967   0.495   0.335   6.922
   31DPPC  H10S 3968   0.323   0.380   6.946
   31DPPC  C211 3969   0.364   0.267   6.764
   31DPPC  H11R 3970   0.453   0.219   6.718
   31DPPC  H11S 3971   0.350   0.364   6.711
   31DPPC  C212 3972   0.243   0.175   6.742
   31DPPC  H12R 3973   0.165   0.205   6.815
   31DPPC  H12S 3974   0.269   0.069   6.762
   31DPPC  C213 3975   0.182   0.191   6.603
   31DPPC  H13R 3976   0.219   0.288   6.563
   31DPPC  H13S 3977   0.071   0.197   6.614
   31DPPC  C214 3978   0.210   0.084   6.498
   31DPPC  H14R 3979   0.139   0.000   6.518
   31DPPC  H14S 3980   0.314   0.047   6.506
   31DPPC  C215 3981   0.182   0.134   6.355
   31DPPC  H15R 3982   0.081   0.180   6.354
   31DPPC  H15S 3983   0.179   0.047   6.286
   31DPPC  C216 3984   0.285   0.235   6.302
   31DPPC  H16R 3985   0.248   0.282   6.209
   31DPPC  H16S 3986   0.381   0.185   6.281
   31DPPC  H16T 3987   0.303   0.316   6.375
   31DPPC   C33 3988   0.790   0.356   7.537
   31DPPC   H3X 3989   0.897   0.328   7.544
   31DPPC   H3Y 3990   0.772   0.392   7.433
   31DPPC   C34 3991   0.699   0.236   7.566
   31DPPC   H4X 3992   0.596   0.265   7.536
   31DPPC   H4Y 3993   0.696   0.219   7.676
   31DPPC   C35 3994   0.731   0.104   7.496
   31DPPC   H5X 3995   0.647   0.034   7.517
   31DPPC   H5Y 3996   0.822   0.058   7.541
   31DPPC   C36 3997   0.748   0.112   7.343
   31DPPC   H6X 3998   0.835   0.175   7.316
   31DPPC   H6Y 3999   0.659   0.161   7.300
   31DPPC   C37 4000   0.765  -0.029   7.282
   31DPPC   H7X 4001   0.694  -0.098   7.333
   31DPPC   H7Y 4002   0.868  -0.065   7.304
   31DPPC   C38 4003   0.739  -0.040   7.131
   31DPPC   H8X 4004   0.634  -0.019   7.107
   31DPPC   H8Y 4005   0.758  -0.145   7.102
   31DPPC   C39 4006   0.828   0.052   7.047
   31DPPC   H9X 4007   0.933   0.028   7.073
   31DPPC   H9Y 4008   0.810   0.159   7.072
   31DPPC  C310 4009   0.813   0.032   6.895
   31DPPC  H10X 4010   0.824  -0.075   6.872
   31DPPC  H10Y 4011   0.897   0.087   6.847
   31DPPC  C311 4012   0.682   0.083   6.834
   31DPPC  H11X 4013   0.651   0.177   6.883
   31DPPC  H11Y 4014   0.603   0.007   6.852
   31DPPC  C312 4015   0.698   0.106   6.683
   31DPPC  H12X 4016   0.599   0.094   6.633
   31DPPC  H12Y 4017   0.764   0.028   6.640
   31DPPC  C313 4018   0.755   0.246   6.650
   31DPPC  H13X 4019   0.850   0.259   6.705
   31DPPC  H13Y 4020   0.685   0.325   6.685
   31DPPC  C314 4021   0.781   0.264   6.499
   31DPPC  H14X 4022   0.834   0.173   6.462
   31DPPC  H14Y 4023   0.850   0.349   6.484
   31DPPC  C315 4024   0.652   0.285   6.418
   31DPPC  H15X 4025   0.600   0.376   6.456
   31DPPC  H15Y 4026   0.585   0.199   6.438
   31DPPC  C316 4027   0.672   0.296   6.266
   31DPPC  H16X 4028   0.714   0.394   6.237
   31DPPC  H16Y 4029   0.575   0.284   6.214
   31DPPC  H16Z 4030   0.742   0.217   6.230
   32DPPC     N 4031   4.176  -0.052   8.224
   32DPPC   C13 4032   4.148  -0.130   8.349
   32DPPC  H13A 4033   4.149  -0.070   8.439
   32DPPC  H13B 4034   4.216  -0.214   8.363
   32DPPC  H13C 4035   4.048  -0.174   8.349
   32DPPC   C14 4036   4.195  -0.141   8.105
   32DPPC  H14A 4037   4.297  -0.180   8.098
   32DPPC  H14B 4038   4.186  -0.081   8.014
   32DPPC  H14C 4039   4.127  -0.224   8.098
   32DPPC   C15 4040   4.062   0.040   8.193
   32DPPC  H15A 4041   4.088   0.096   8.102
   32DPPC  H15B 4042   4.051   0.111   8.274
   32DPPC  H15C 4043   3.970  -0.013   8.177
   32DPPC   C12 4044   4.297   0.037   8.242
   32DPPC  H12A 4045   4.367  -0.004   8.313
   32DPPC  H12B 4046   4.262   0.127   8.293
   32DPPC   C11 4047   4.370   0.091   8.118
   32DPPC  H11A 4048   4.412   0.009   8.055
   32DPPC  H11B 4049   4.459   0.150   8.150
   32DPPC     P 4050   4.249   0.159   7.896
   32DPPC   O13 4051   4.121   0.228   7.870
   32DPPC   O14 4052   4.251   0.014   7.869
   32DPPC   O11 4053   4.376   0.226   7.836
   32DPPC   O12 4054   4.278   0.177   8.050
   32DPPC    C1 4055   4.400   0.364   7.830
   32DPPC    HA 4056   4.505   0.377   7.863
   32DPPC    HB 4057   4.337   0.424   7.900
   32DPPC    C2 4058   4.394   0.416   7.684
   32DPPC    HS 4059   4.443   0.517   7.685
   32DPPC   O21 4060   4.264   0.428   7.626
   32DPPC   C21 4061   4.157   0.463   7.694
   32DPPC   O22 4062   4.156   0.531   7.796
   32DPPC   C22 4063   4.034   0.412   7.615
   32DPPC   H2R 4064   4.006   0.493   7.546
   32DPPC   H2S 4065   3.951   0.396   7.687
   32DPPC    C3 4066   4.479   0.323   7.590
   32DPPC    HX 4067   4.543   0.258   7.655
   32DPPC    HY 4068   4.546   0.392   7.535
   32DPPC   O31 4069   4.407   0.249   7.489
   32DPPC   C31 4070   4.397   0.118   7.502
   32DPPC   O32 4071   4.444   0.049   7.590
   32DPPC   C32 4072   4.328   0.061   7.378
   32DPPC   H2X 4073   4.386   0.094   7.290
   32DPPC   H2Y 4074   4.225   0.102   7.372
   32DPPC   C23 4075   4.060   0.282   7.533
   32DPPC   H3R 4076   4.053   0.196   7.602
   32DPPC   H3S 4077   4.164   0.281   7.493
   32DPPC   C24 4078   3.971   0.260   7.410
   32DPPC   H4R 4079   3.865   0.252   7.444
   32DPPC   H4S 4080   3.998   0.161   7.366
   32DPPC   C25 4081   3.981   0.364   7.297
   32DPPC   H5R 4082   3.936   0.459   7.333
   32DPPC   H5S 4083   3.920   0.329   7.211
   32DPPC   C26 4084   4.121   0.398   7.242
   32DPPC   H6R 4085   4.190   0.419   7.328
   32DPPC   H6S 4086   4.114   0.492   7.183
   32DPPC   C27 4087   4.182   0.290   7.151
   32DPPC   H7R 4088   4.120   0.198   7.157
   32DPPC   H7S 4089   4.283   0.265   7.190
   32DPPC   C28 4090   4.197   0.332   7.003
   32DPPC   H8R 4091   4.259   0.424   7.000
   32DPPC   H8S 4092   4.097   0.356   6.961
   32DPPC   C29 4093   4.264   0.222   6.918
   32DPPC   H9R 4094   4.196   0.134   6.912
   32DPPC   H9S 4095   4.356   0.189   6.973
   32DPPC  C210 4096   4.308   0.263   6.777
   32DPPC  H10R 4097   4.368   0.178   6.736
   32DPPC  H10S 4098   4.376   0.352   6.781
   32DPPC  C211 4099   4.195   0.289   6.676
   32DPPC  H11R 4100   4.159   0.394   6.689
   32DPPC  H11S 4101   4.111   0.220   6.698
   32DPPC  C212 4102   4.240   0.265   6.531
   32DPPC  H12R 4103   4.228   0.157   6.507
   32DPPC  H12S 4104   4.348   0.285   6.527
   32DPPC  C213 4105   4.171   0.349   6.422
   32DPPC  H13R 4106   4.129   0.441   6.468
   32DPPC  H13S 4107   4.087   0.292   6.379
   32DPPC  C214 4108   4.269   0.391   6.311
   32DPPC  H14R 4109   4.358   0.324   6.311
   32DPPC  H14S 4110   4.306   0.493   6.334
   32DPPC  C215 4111   4.212   0.392   6.169
   32DPPC  H15R 4112   4.104   0.421   6.174
   32DPPC  H15S 4113   4.221   0.289   6.128
   32DPPC  C216 4114   4.282   0.486   6.071
   32DPPC  H16R 4115   4.248   0.466   5.967
   32DPPC  H16S 4116   4.392   0.473   6.075
   32DPPC  H16T 4117   4.258   0.591   6.095
   32DPPC   C33 4118   4.325  -0.093   7.383
   32DPPC   H3X 4119   4.267  -0.127   7.472
   32DPPC   H3Y 4120   4.429  -0.131   7.395
   32DPPC   C34 4121   4.264  -0.153   7.256
   32DPPC   H4X 4122   4.310  -0.105   7.168
   32DPPC   H4Y 4123   4.156  -0.126   7.251
   32DPPC   C35 4124   4.280  -0.305   7.249
   32DPPC   H5X 4125   4.211  -0.345   7.172
   32DPPC   H5Y 4126   4.250  -0.350   7.346
   32DPPC   C36 4127   4.423  -0.351   7.215
   32DPPC   H6X 4128   4.424  -0.462   7.218
   32DPPC   H6Y 4129   4.497  -0.316   7.291
   32DPPC   C37 4130   4.468  -0.310   7.073
   32DPPC   H7X 4131   4.376  -0.304   7.011
   32DPPC   H7Y 4132   4.532  -0.390   7.030
   32DPPC   C38 4133   4.546  -0.178   7.069
   32DPPC   H8X 4134   4.653  -0.198   7.047
   32DPPC   H8Y 4135   4.542  -0.134   7.172
   32DPPC   C39 4136   4.493  -0.070   6.972
   32DPPC   H9X 4137   4.548   0.024   6.995
   32DPPC   H9Y 4138   4.385  -0.050   6.990
   32DPPC  C310 4139   4.512  -0.100   6.823
   32DPPC  H10X 4140   4.616  -0.134   6.803
   32DPPC  H10Y 4141   4.497  -0.005   6.768
   32DPPC  C311 4142   4.411  -0.203   6.769
   32DPPC  H11X 4143   4.309  -0.179   6.807
   32DPPC  H11Y 4144   4.439  -0.303   6.807
   32DPPC  C312 4145   4.406  -0.212   6.617
   32DPPC  H12X 4146   4.344  -0.300   6.589
   32DPPC  H12Y 4147   4.508  -0.231   6.579
   32DPPC  C313 4148   4.348  -0.089   6.545
   32DPPC  H13X 4149   4.403   0.003   6.574
   32DPPC  H13Y 4150   4.243  -0.077   6.579
   32DPPC  C314 4151   4.357  -0.108   6.393
   32DPPC  H14X 4152   4.345  -0.217   6.372
   32DPPC  H14Y 4153   4.459  -0.079   6.359
   32DPPC  C315 4154   4.253  -0.034   6.310
   32DPPC  H15X 4155   4.264  -0.068   6.204
   32DPPC  H15Y 4156   4.275   0.075   6.310
   32DPPC  C316 4157   4.109  -0.058   6.355
   32DPPC  H16X 4158   4.042  -0.072   6.267
   32DPPC  H16Y 4159   4.070   0.028   6.414
   32DPPC  H16Z 4160   4.101  -0.149   6.418
   33DPPC     N 4161   2.159   2.538   4.029
   33DPPC   C13 4162   2.141   2.675   4.090
   33DPPC  H13A 4163   2.118   2.664   4.196
   33DPPC  H13B 4164   2.059   2.728   4.043
   33DPPC  H13C 4165   2.227   2.738   4.078
   33DPPC   C14 4166   2.046   2.451   4.077
   33DPPC  H14A 4167   2.059   2.431   4.185
   33DPPC  H14B 4168   2.042   2.355   4.029
   33DPPC  H14C 4169   1.950   2.500   4.076
   33DPPC   C15 4170   2.161   2.552   3.881
   33DPPC  H15A 4171   2.084   2.620   3.848
   33DPPC  H15B 4172   2.148   2.458   3.830
   33DPPC  H15C 4173   2.257   2.594   3.851
   33DPPC   C12 4174   2.292   2.477   4.073
   33DPPC  H12A 4175   2.373   2.530   4.024
   33DPPC  H12B 4176   2.298   2.375   4.037
   33DPPC   C11 4177   2.326   2.472   4.223
   33DPPC  H11A 4178   2.334   2.577   4.260
   33DPPC  H11B 4179   2.426   2.426   4.236
   33DPPC     P 4180   2.154   2.441   4.423
   33DPPC   O13 4181   2.143   2.324   4.513
   33DPPC   O14 4182   2.030   2.504   4.372
   33DPPC   O11 4183   2.245   2.556   4.481
   33DPPC   O12 4184   2.231   2.393   4.294
   33DPPC    C1 4185   2.375   2.532   4.535
   33DPPC    HA 4186   2.445   2.607   4.494
   33DPPC    HB 4187   2.415   2.431   4.509
   33DPPC    C2 4188   2.374   2.546   4.689
   33DPPC    HS 4189   2.479   2.566   4.720
   33DPPC   O21 4190   2.325   2.422   4.741
   33DPPC   C21 4191   2.374   2.385   4.855
   33DPPC   O22 4192   2.462   2.441   4.918
   33DPPC   C22 4193   2.301   2.260   4.902
   33DPPC   H2R 4194   2.373   2.199   4.961
   33DPPC   H2S 4195   2.267   2.202   4.814
   33DPPC    C3 4196   2.285   2.668   4.731
   33DPPC    HX 4197   2.182   2.646   4.695
   33DPPC    HY 4198   2.321   2.757   4.674
   33DPPC   O31 4199   2.277   2.697   4.872
   33DPPC   C31 4200   2.388   2.747   4.926
   33DPPC   O32 4201   2.494   2.763   4.868
   33DPPC   C32 4202   2.363   2.787   5.071
   33DPPC   H2X 4203   2.261   2.831   5.080
   33DPPC   H2Y 4204   2.437   2.866   5.096
   33DPPC   C23 4205   2.181   2.302   4.988
   33DPPC   H3R 4206   2.105   2.348   4.920
   33DPPC   H3S 4207   2.213   2.380   5.061
   33DPPC   C24 4208   2.116   2.188   5.068
   33DPPC   H4R 4209   2.183   2.162   5.153
   33DPPC   H4S 4210   2.106   2.099   5.003
   33DPPC   C25 4211   1.976   2.225   5.121
   33DPPC   H5R 4212   1.946   2.157   5.203
   33DPPC   H5S 4213   1.904   2.210   5.037
   33DPPC   C26 4214   1.961   2.371   5.166
   33DPPC   H6R 4215   1.852   2.392   5.171
   33DPPC   H6S 4216   1.999   2.441   5.089
   33DPPC   C27 4217   2.024   2.409   5.301
   33DPPC   H7R 4218   2.089   2.498   5.284
   33DPPC   H7S 4219   2.089   2.327   5.339
   33DPPC   C28 4220   1.918   2.448   5.404
   33DPPC   H8R 4221   1.857   2.357   5.428
   33DPPC   H8S 4222   1.852   2.523   5.355
   33DPPC   C29 4223   1.967   2.514   5.533
   33DPPC   H9R 4224   1.882   2.573   5.576
   33DPPC   H9S 4225   2.047   2.587   5.509
   33DPPC  C210 4226   2.011   2.414   5.639
   33DPPC  H10R 4227   2.101   2.360   5.602
   33DPPC  H10S 4228   1.931   2.337   5.651
   33DPPC  C211 4229   2.035   2.476   5.778
   33DPPC  H11R 4230   2.076   2.397   5.845
   33DPPC  H11S 4231   1.936   2.506   5.820
   33DPPC  C212 4232   2.127   2.599   5.782
   33DPPC  H12R 4233   2.095   2.674   5.707
   33DPPC  H12S 4234   2.231   2.570   5.755
   33DPPC  C213 4235   2.133   2.666   5.920
   33DPPC  H13R 4236   2.129   2.588   5.998
   33DPPC  H13S 4237   2.044   2.731   5.933
   33DPPC  C214 4238   2.262   2.747   5.940
   33DPPC  H14R 4239   2.271   2.823   5.860
   33DPPC  H14S 4240   2.349   2.678   5.931
   33DPPC  C215 4241   2.267   2.815   6.077
   33DPPC  H15R 4242   2.240   2.742   6.156
   33DPPC  H15S 4243   2.190   2.895   6.078
   33DPPC  C216 4244   2.404   2.874   6.108
   33DPPC  H16R 4245   2.398   2.943   6.195
   33DPPC  H16S 4246   2.443   2.930   6.021
   33DPPC  H16T 4247   2.476   2.793   6.133
   33DPPC   C33 4248   2.380   2.669   5.168
   33DPPC   H3X 4249   2.480   2.622   5.151
   33DPPC   H3Y 4250   2.303   2.592   5.149
   33DPPC   C34 4251   2.374   2.714   5.315
   33DPPC   H4X 4252   2.270   2.744   5.341
   33DPPC   H4Y 4253   2.439   2.802   5.326
   33DPPC   C35 4254   2.426   2.609   5.414
   33DPPC   H5X 4255   2.425   2.653   5.517
   33DPPC   H5Y 4256   2.532   2.586   5.389
   33DPPC   C36 4257   2.344   2.481   5.412
   33DPPC   H6X 4258   2.338   2.442   5.308
   33DPPC   H6Y 4259   2.241   2.502   5.447
   33DPPC   C37 4260   2.404   2.372   5.500
   33DPPC   H7X 4261   2.511   2.358   5.474
   33DPPC   H7Y 4262   2.351   2.276   5.479
   33DPPC   C38 4263   2.391   2.400   5.650
   33DPPC   H8X 4264   2.284   2.390   5.676
   33DPPC   H8Y 4265   2.424   2.503   5.675
   33DPPC   C39 4266   2.470   2.301   5.733
   33DPPC   H9X 4267   2.572   2.342   5.744
   33DPPC   H9Y 4268   2.477   2.205   5.678
   33DPPC  C310 4269   2.408   2.272   5.870
   33DPPC  H10X 4270   2.428   2.166   5.894
   33DPPC  H10Y 4271   2.298   2.285   5.868
   33DPPC  C311 4272   2.472   2.359   5.978
   33DPPC  H11X 4273   2.461   2.467   5.952
   33DPPC  H11Y 4274   2.581   2.335   5.976
   33DPPC  C312 4275   2.422   2.333   6.120
   33DPPC  H12X 4276   2.506   2.355   6.189
   33DPPC  H12Y 4277   2.395   2.227   6.135
   33DPPC  C313 4278   2.306   2.423   6.165
   33DPPC  H13X 4279   2.309   2.519   6.110
   33DPPC  H13Y 4280   2.322   2.446   6.272
   33DPPC  C314 4281   2.170   2.356   6.152
   33DPPC  H14X 4282   2.177   2.253   6.195
   33DPPC  H14Y 4283   2.145   2.345   6.044
   33DPPC  C315 4284   2.059   2.433   6.225
   33DPPC  H15X 4285   2.093   2.539   6.237
   33DPPC  H15Y 4286   2.047   2.391   6.327
   33DPPC  C316 4287   1.926   2.434   6.151
   33DPPC  H16X 4288   1.848   2.483   6.214
   33DPPC  H16Y 4289   1.892   2.331   6.127
   33DPPC  H16Z 4290   1.934   2.490   6.055
   34DPPC     N 4291   2.291   1.773   4.396
   34DPPC   C13 4292   2.317   1.750   4.541
   34DPPC  H13A 4293   2.343   1.844   4.588
   34DPPC  H13B 4294   2.400   1.681   4.555
   34DPPC  H13C 4295   2.229   1.710   4.591
   34DPPC   C14 4296   2.188   1.883   4.383
   34DPPC  H14A 4297   2.099   1.860   4.440
   34DPPC  H14B 4298   2.163   1.894   4.278
   34DPPC  H14C 4299   2.228   1.978   4.419
   34DPPC   C15 4300   2.419   1.824   4.334
   34DPPC  H15A 4301   2.500   1.753   4.343
   34DPPC  H15B 4302   2.450   1.920   4.373
   34DPPC  H15C 4303   2.403   1.837   4.226
   34DPPC   C12 4304   2.248   1.647   4.322
   34DPPC  H12A 4305   2.161   1.603   4.370
   34DPPC  H12B 4306   2.327   1.571   4.331
   34DPPC   C11 4307   2.219   1.663   4.169
   34DPPC  H11A 4308   2.140   1.739   4.155
   34DPPC  H11B 4309   2.175   1.567   4.131
   34DPPC     P 4310   2.443   1.590   4.054
   34DPPC   O13 4311   2.574   1.650   4.020
   34DPPC   O14 4312   2.384   1.499   3.953
   34DPPC   O11 4313   2.456   1.509   4.192
   34DPPC   O12 4314   2.334   1.700   4.092
   34DPPC    C1 4315   2.401   1.376   4.197
   34DPPC    HA 4316   2.453   1.311   4.122
   34DPPC    HB 4317   2.292   1.376   4.171
   34DPPC    C2 4318   2.416   1.299   4.333
   34DPPC    HS 4319   2.400   1.192   4.310
   34DPPC   O21 4320   2.315   1.341   4.427
   34DPPC   C21 4321   2.304   1.265   4.538
   34DPPC   O22 4322   2.389   1.194   4.586
   34DPPC   C22 4323   2.168   1.289   4.599
   34DPPC   H2R 4324   2.152   1.208   4.673
   34DPPC   H2S 4325   2.092   1.282   4.519
   34DPPC    C3 4326   2.558   1.315   4.394
   34DPPC    HX 4327   2.631   1.321   4.310
   34DPPC    HY 4328   2.579   1.221   4.451
   34DPPC   O31 4329   2.571   1.431   4.479
   34DPPC   C31 4330   2.684   1.428   4.548
   34DPPC   O32 4331   2.765   1.336   4.549
   34DPPC   C32 4332   2.694   1.563   4.614
   34DPPC   H2X 4333   2.616   1.570   4.693
   34DPPC   H2Y 4334   2.671   1.638   4.535
   34DPPC   C23 4335   2.166   1.427   4.667
   34DPPC   H3R 4336   2.061   1.460   4.678
   34DPPC   H3S 4337   2.216   1.502   4.602
   34DPPC   C24 4338   2.232   1.420   4.806
   34DPPC   H4R 4339   2.289   1.325   4.817
   34DPPC   H4S 4340   2.151   1.418   4.882
   34DPPC   C25 4341   2.327   1.535   4.837
   34DPPC   H5R 4342   2.296   1.629   4.786
   34DPPC   H5S 4343   2.429   1.508   4.802
   34DPPC   C26 4344   2.329   1.562   4.988
   34DPPC   H6R 4345   2.427   1.607   5.014
   34DPPC   H6S 4346   2.323   1.466   5.042
   34DPPC   C27 4347   2.215   1.656   5.030
   34DPPC   H7R 4348   2.117   1.616   4.997
   34DPPC   H7S 4349   2.231   1.755   4.980
   34DPPC   C28 4350   2.211   1.680   5.182
   34DPPC   H8R 4351   2.145   1.765   5.207
   34DPPC   H8S 4352   2.315   1.708   5.212
   34DPPC   C29 4353   2.168   1.557   5.264
   34DPPC   H9R 4354   2.201   1.464   5.213
   34DPPC   H9S 4355   2.058   1.554   5.274
   34DPPC  C210 4356   2.235   1.561   5.401
   34DPPC  H10R 4357   2.195   1.646   5.461
   34DPPC  H10S 4358   2.344   1.580   5.384
   34DPPC  C211 4359   2.229   1.432   5.482
   34DPPC  H11R 4360   2.314   1.437   5.554
   34DPPC  H11S 4361   2.244   1.344   5.416
   34DPPC  C212 4362   2.102   1.416   5.566
   34DPPC  H12R 4363   2.014   1.397   5.501
   34DPPC  H12S 4364   2.083   1.511   5.619
   34DPPC  C213 4365   2.120   1.302   5.668
   34DPPC  H13R 4366   2.228   1.279   5.679
   34DPPC  H13S 4367   2.073   1.210   5.626
   34DPPC  C214 4368   2.065   1.335   5.807
   34DPPC  H14R 4369   2.062   1.242   5.869
   34DPPC  H14S 4370   1.961   1.372   5.796
   34DPPC  C215 4371   2.147   1.439   5.883
   34DPPC  H15R 4372   2.089   1.474   5.971
   34DPPC  H15S 4373   2.161   1.527   5.817
   34DPPC  C216 4374   2.283   1.387   5.931
   34DPPC  H16R 4375   2.336   1.463   5.992
   34DPPC  H16S 4376   2.348   1.361   5.844
   34DPPC  H16T 4377   2.271   1.295   5.992
   34DPPC   C33 4378   2.832   1.596   4.671
   34DPPC   H3X 4379   2.914   1.558   4.605
   34DPPC   H3Y 4380   2.846   1.551   4.772
   34DPPC   C34 4381   2.848   1.748   4.677
   34DPPC   H4X 4382   2.852   1.785   4.573
   34DPPC   H4Y 4383   2.945   1.771   4.724
   34DPPC   C35 4384   2.736   1.823   4.753
   34DPPC   H5X 4385   2.643   1.825   4.693
   34DPPC   H5Y 4386   2.768   1.929   4.767
   34DPPC   C36 4387   2.707   1.764   4.891
   34DPPC   H6X 4388   2.804   1.728   4.933
   34DPPC   H6Y 4389   2.640   1.677   4.883
   34DPPC   C37 4390   2.650   1.868   4.988
   34DPPC   H7X 4391   2.559   1.916   4.945
   34DPPC   H7Y 4392   2.727   1.947   5.003
   34DPPC   C38 4393   2.617   1.802   5.121
   34DPPC   H8X 4394   2.695   1.726   5.142
   34DPPC   H8Y 4395   2.521   1.747   5.115
   34DPPC   C39 4396   2.609   1.898   5.239
   34DPPC   H9X 4397   2.698   1.964   5.243
   34DPPC   H9Y 4398   2.611   1.834   5.330
   34DPPC  C310 4399   2.480   1.981   5.236
   34DPPC  H10X 4400   2.395   1.914   5.211
   34DPPC  H10Y 4401   2.487   2.057   5.154
   34DPPC  C311 4402   2.447   2.052   5.368
   34DPPC  H11X 4403   2.341   2.085   5.365
   34DPPC  H11Y 4404   2.511   2.143   5.374
   34DPPC  C312 4405   2.470   1.970   5.496
   34DPPC  H12X 4406   2.444   2.032   5.585
   34DPPC  H12Y 4407   2.577   1.945   5.505
   34DPPC  C313 4408   2.389   1.840   5.504
   34DPPC  H13X 4409   2.393   1.790   5.406
   34DPPC  H13Y 4410   2.283   1.863   5.527
   34DPPC  C314 4411   2.448   1.745   5.609
   34DPPC  H14X 4412   2.551   1.715   5.581
   34DPPC  H14Y 4413   2.386   1.652   5.610
   34DPPC  C315 4414   2.448   1.802   5.751
   34DPPC  H15X 4415   2.383   1.892   5.755
   34DPPC  H15Y 4416   2.551   1.834   5.779
   34DPPC  C316 4417   2.397   1.699   5.851
   34DPPC  H16X 4418   2.293   1.673   5.824
   34DPPC  H16Y 4419   2.396   1.737   5.954
   34DPPC  H16Z 4420   2.460   1.608   5.848
   35DPPC     N 4421   3.120   2.365   4.242
   35DPPC   C13 4422   3.239   2.363   4.332
   35DPPC  H13A 4423   3.332   2.365   4.276
   35DPPC  H13B 4424   3.239   2.275   4.395
   35DPPC  H13C 4425   3.239   2.447   4.400
   35DPPC   C14 4426   2.996   2.393   4.319
   35DPPC  H14A 4427   2.910   2.387   4.252
   35DPPC  H14B 4428   2.998   2.487   4.370
   35DPPC  H14C 4429   2.977   2.314   4.393
   35DPPC   C15 4430   3.142   2.473   4.141
   35DPPC  H15A 4431   3.234   2.456   4.087
   35DPPC  H15B 4432   3.144   2.570   4.187
   35DPPC  H15C 4433   3.059   2.473   4.070
   35DPPC   C12 4434   3.104   2.230   4.173
   35DPPC  H12A 4435   3.083   2.156   4.250
   35DPPC  H12B 4436   3.197   2.201   4.128
   35DPPC   C11 4437   2.991   2.216   4.068
   35DPPC  H11A 4438   3.001   2.117   4.017
   35DPPC  H11B 4439   3.005   2.291   3.988
   35DPPC     P 4440   2.799   2.109   4.207
   35DPPC   O13 4441   2.761   2.005   4.109
   35DPPC   O14 4442   2.696   2.162   4.299
   35DPPC   O11 4443   2.923   2.063   4.295
   35DPPC   O12 4444   2.860   2.232   4.125
   35DPPC    C1 4445   2.900   1.997   4.419
   35DPPC    HA 4446   2.961   1.904   4.421
   35DPPC    HB 4447   2.794   1.965   4.435
   35DPPC    C2 4448   2.941   2.083   4.542
   35DPPC    HS 4449   2.911   2.027   4.634
   35DPPC   O21 4450   2.885   2.216   4.538
   35DPPC   C21 4451   2.765   2.223   4.593
   35DPPC   O22 4452   2.698   2.129   4.631
   35DPPC   C22 4453   2.733   2.369   4.625
   35DPPC   H2R 4454   2.629   2.387   4.590
   35DPPC   H2S 4455   2.802   2.435   4.570
   35DPPC    C3 4456   3.094   2.097   4.553
   35DPPC    HX 4457   3.130   2.162   4.471
   35DPPC    HY 4458   3.138   1.996   4.537
   35DPPC   O31 4459   3.131   2.143   4.685
   35DPPC   C31 4460   3.185   2.263   4.698
   35DPPC   O32 4461   3.199   2.346   4.611
   35DPPC   C32 4462   3.226   2.284   4.844
   35DPPC   H2X 4463   3.177   2.207   4.906
   35DPPC   H2Y 4464   3.185   2.383   4.873
   35DPPC   C23 4465   2.742   2.394   4.778
   35DPPC   H3R 4466   2.671   2.327   4.831
   35DPPC   H3S 4467   2.711   2.499   4.799
   35DPPC   C24 4468   2.883   2.372   4.834
   35DPPC   H4R 4469   2.955   2.422   4.764
   35DPPC   H4S 4470   2.907   2.263   4.835
   35DPPC   C25 4471   2.905   2.431   4.974
   35DPPC   H5R 4472   2.889   2.541   4.971
   35DPPC   H5S 4473   3.011   2.414   5.004
   35DPPC   C26 4474   2.818   2.371   5.086
   35DPPC   H6R 4475   2.834   2.260   5.089
   35DPPC   H6S 4476   2.710   2.389   5.064
   35DPPC   C27 4477   2.854   2.432   5.223
   35DPPC   H7R 4478   2.829   2.541   5.219
   35DPPC   H7S 4479   2.964   2.424   5.237
   35DPPC   C28 4480   2.783   2.371   5.346
   35DPPC   H8R 4481   2.674   2.377   5.330
   35DPPC   H8S 4482   2.809   2.433   5.435
   35DPPC   C29 4483   2.823   2.225   5.375
   35DPPC   H9R 4484   2.934   2.215   5.375
   35DPPC   H9S 4485   2.784   2.163   5.291
   35DPPC  C210 4486   2.768   2.168   5.507
   35DPPC  H10R 4487   2.758   2.058   5.495
   35DPPC  H10S 4488   2.666   2.209   5.526
   35DPPC  C211 4489   2.857   2.194   5.629
   35DPPC  H11R 4490   2.875   2.304   5.635
   35DPPC  H11S 4491   2.956   2.144   5.612
   35DPPC  C212 4492   2.799   2.150   5.764
   35DPPC  H12R 4493   2.703   2.202   5.781
   35DPPC  H12S 4494   2.866   2.186   5.846
   35DPPC  C213 4495   2.771   2.000   5.781
   35DPPC  H13R 4496   2.708   1.964   5.697
   35DPPC  H13S 4497   2.712   1.988   5.875
   35DPPC  C214 4498   2.896   1.912   5.795
   35DPPC  H14R 4499   2.947   1.906   5.696
   35DPPC  H14S 4500   2.864   1.809   5.823
   35DPPC  C215 4501   2.993   1.967   5.899
   35DPPC  H15R 4502   2.933   2.007   5.984
   35DPPC  H15S 4503   3.047   2.052   5.851
   35DPPC  C216 4504   3.096   1.871   5.956
   35DPPC  H16R 4505   3.154   1.921   6.037
   35DPPC  H16S 4506   3.168   1.839   5.878
   35DPPC  H16T 4507   3.048   1.781   6.000
   35DPPC   C33 4508   3.379   2.284   4.868
   35DPPC   H3X 4509   3.423   2.378   4.827
   35DPPC   H3Y 4510   3.427   2.198   4.816
   35DPPC   C34 4511   3.412   2.273   5.018
   35DPPC   H4X 4512   3.521   2.290   5.034
   35DPPC   H4Y 4513   3.389   2.169   5.051
   35DPPC   C35 4514   3.332   2.370   5.106
   35DPPC   H5X 4515   3.223   2.354   5.088
   35DPPC   H5Y 4516   3.356   2.474   5.078
   35DPPC   C36 4517   3.354   2.349   5.256
   35DPPC   H6X 4518   3.419   2.430   5.295
   35DPPC   H6Y 4519   3.408   2.253   5.270
   35DPPC   C37 4520   3.222   2.342   5.335
   35DPPC   H7X 4521   3.164   2.252   5.304
   35DPPC   H7Y 4522   3.163   2.432   5.307
   35DPPC   C38 4523   3.239   2.343   5.488
   35DPPC   H8X 4524   3.341   2.377   5.514
   35DPPC   H8Y 4525   3.227   2.240   5.529
   35DPPC   C39 4526   3.140   2.439   5.556
   35DPPC   H9X 4527   3.037   2.403   5.540
   35DPPC   H9Y 4528   3.148   2.537   5.506
   35DPPC  C310 4529   3.169   2.461   5.705
   35DPPC  H10X 4530   3.099   2.538   5.743
   35DPPC  H10Y 4531   3.272   2.499   5.716
   35DPPC  C311 4532   3.156   2.334   5.790
   35DPPC  H11X 4533   3.239   2.264   5.768
   35DPPC  H11Y 4534   3.061   2.282   5.764
   35DPPC  C312 4535   3.152   2.365   5.941
   35DPPC  H12X 4536   3.064   2.430   5.958
   35DPPC  H12Y 4537   3.244   2.421   5.968
   35DPPC  C313 4538   3.138   2.238   6.026
   35DPPC  H13X 4539   3.217   2.166   5.995
   35DPPC  H13Y 4540   3.039   2.195   6.003
   35DPPC  C314 4541   3.142   2.257   6.179
   35DPPC  H14X 4542   3.053   2.315   6.209
   35DPPC  H14Y 4543   3.232   2.314   6.209
   35DPPC  C315 4544   3.142   2.124   6.256
   35DPPC  H15X 4545   3.059   2.060   6.217
   35DPPC  H15Y 4546   3.118   2.146   6.363
   35DPPC  C316 4547   3.273   2.045   6.252
   35DPPC  H16X 4548   3.357   2.103   6.296
   35DPPC  H16Y 4549   3.302   2.019   6.148
   35DPPC  H16Z 4550   3.263   1.950   6.310
   36DPPC     N 4551   1.464   1.948   4.015
   36DPPC   C13 4552   1.557   1.853   4.085
   36DPPC  H13A 4553   1.544   1.864   4.193
   36DPPC  H13B 4554   1.660   1.880   4.065
   36DPPC  H13C 4555   1.537   1.750   4.060
   36DPPC   C14 4556   1.499   1.948   3.871
   36DPPC  H14A 4557   1.480   1.853   3.824
   36DPPC  H14B 4558   1.604   1.973   3.862
   36DPPC  H14C 4559   1.449   2.027   3.817
   36DPPC   C15 4560   1.323   1.907   4.041
   36DPPC  H15A 4561   1.308   1.904   4.149
   36DPPC  H15B 4562   1.301   1.808   4.002
   36DPPC  H15C 4563   1.252   1.978   3.998
   36DPPC   C12 4564   1.491   2.086   4.075
   36DPPC  H12A 4565   1.455   2.163   4.008
   36DPPC  H12B 4566   1.599   2.100   4.078
   36DPPC   C11 4567   1.437   2.113   4.217
   36DPPC  H11A 4568   1.326   2.123   4.215
   36DPPC  H11B 4569   1.479   2.210   4.253
   36DPPC     P 4570   1.448   2.015   4.460
   36DPPC   O13 4571   1.326   2.094   4.483
   36DPPC   O14 4572   1.574   2.054   4.527
   36DPPC   O11 4573   1.414   1.864   4.488
   36DPPC   O12 4574   1.475   2.006   4.304
   36DPPC    C1 4575   1.350   1.789   4.383
   36DPPC    HA 4576   1.420   1.770   4.299
   36DPPC    HB 4577   1.262   1.845   4.343
   36DPPC    C2 4578   1.300   1.650   4.431
   36DPPC    HS 4579   1.223   1.613   4.359
   36DPPC   O21 4580   1.243   1.659   4.562
   36DPPC   C21 4581   1.136   1.734   4.570
   36DPPC   O22 4582   1.073   1.782   4.476
   36DPPC   C22 4583   1.096   1.744   4.718
   36DPPC   H2R 4584   1.098   1.641   4.758
   36DPPC   H2S 4585   0.992   1.781   4.724
   36DPPC    C3 4586   1.415   1.545   4.431
   36DPPC    HX 4587   1.420   1.500   4.329
   36DPPC    HY 4588   1.391   1.460   4.499
   36DPPC   O31 4589   1.542   1.608   4.458
   36DPPC   C31 4590   1.585   1.600   4.583
   36DPPC   O32 4591   1.529   1.549   4.678
   36DPPC   C32 4592   1.725   1.664   4.592
   36DPPC   H2X 4593   1.734   1.743   4.514
   36DPPC   H2Y 4594   1.798   1.583   4.570
   36DPPC   C23 4595   1.191   1.833   4.803
   36DPPC   H3R 4596   1.137   1.927   4.830
   36DPPC   H3S 4597   1.281   1.862   4.744
   36DPPC   C24 4598   1.239   1.763   4.931
   36DPPC   H4R 4599   1.152   1.714   4.982
   36DPPC   H4S 4600   1.281   1.838   5.001
   36DPPC   C25 4601   1.346   1.658   4.902
   36DPPC   H5R 4602   1.433   1.707   4.853
   36DPPC   H5S 4603   1.305   1.585   4.827
   36DPPC   C26 4604   1.393   1.576   5.024
   36DPPC   H6R 4605   1.384   1.470   4.992
   36DPPC   H6S 4606   1.324   1.591   5.110
   36DPPC   C27 4607   1.539   1.598   5.067
   36DPPC   H7R 4608   1.592   1.651   4.986
   36DPPC   H7S 4609   1.591   1.500   5.078
   36DPPC   C28 4610   1.555   1.673   5.200
   36DPPC   H8R 4611   1.516   1.613   5.285
   36DPPC   H8S 4612   1.490   1.763   5.193
   36DPPC   C29 4613   1.700   1.717   5.228
   36DPPC   H9R 4614   1.744   1.751   5.131
   36DPPC   H9S 4615   1.761   1.631   5.263
   36DPPC  C210 4616   1.708   1.834   5.326
   36DPPC  H10R 4617   1.606   1.876   5.341
   36DPPC  H10S 4618   1.770   1.915   5.281
   36DPPC  C211 4619   1.767   1.801   5.464
   36DPPC  H11R 4620   1.874   1.776   5.453
   36DPPC  H11S 4621   1.715   1.712   5.507
   36DPPC  C212 4622   1.748   1.921   5.558
   36DPPC  H12R 4623   1.639   1.929   5.580
   36DPPC  H12S 4624   1.777   2.015   5.506
   36DPPC  C213 4625   1.826   1.910   5.689
   36DPPC  H13R 4626   1.914   1.977   5.689
   36DPPC  H13S 4627   1.863   1.805   5.699
   36DPPC  C214 4628   1.736   1.940   5.811
   36DPPC  H14R 4629   1.781   1.891   5.899
   36DPPC  H14S 4630   1.637   1.892   5.796
   36DPPC  C215 4631   1.719   2.089   5.841
   36DPPC  H15R 4632   1.679   2.140   5.751
   36DPPC  H15S 4633   1.818   2.133   5.863
   36DPPC  C216 4634   1.626   2.115   5.960
   36DPPC  H16R 4635   1.520   2.092   5.933
   36DPPC  H16S 4636   1.631   2.221   5.991
   36DPPC  H16T 4637   1.654   2.052   6.047
   36DPPC   C33 4638   1.752   1.724   4.732
   36DPPC   H3X 4639   1.862   1.736   4.747
   36DPPC   H3Y 4640   1.716   1.654   4.811
   36DPPC   C34 4641   1.684   1.860   4.746
   36DPPC   H4X 4642   1.580   1.852   4.704
   36DPPC   H4Y 4643   1.737   1.934   4.682
   36DPPC   C35 4644   1.672   1.916   4.888
   36DPPC   H5X 4645   1.771   1.920   4.937
   36DPPC   H5Y 4646   1.604   1.850   4.947
   36DPPC   C36 4647   1.609   2.056   4.885
   36DPPC   H6X 4648   1.511   2.051   4.830
   36DPPC   H6Y 4649   1.675   2.124   4.825
   36DPPC   C37 4650   1.586   2.117   5.023
   36DPPC   H7X 4651   1.571   2.226   5.012
   36DPPC   H7Y 4652   1.677   2.103   5.085
   36DPPC   C38 4653   1.464   2.058   5.097
   36DPPC   H8X 4654   1.484   1.952   5.121
   36DPPC   H8Y 4655   1.375   2.062   5.029
   36DPPC   C39 4656   1.433   2.136   5.225
   36DPPC   H9X 4657   1.385   2.232   5.196
   36DPPC   H9Y 4658   1.530   2.158   5.275
   36DPPC  C310 4659   1.344   2.067   5.328
   36DPPC  H10X 4660   1.391   1.971   5.359
   36DPPC  H10Y 4661   1.244   2.045   5.285
   36DPPC  C311 4662   1.332   2.160   5.450
   36DPPC  H11X 4663   1.281   2.254   5.418
   36DPPC  H11Y 4664   1.435   2.185   5.483
   36DPPC  C312 4665   1.260   2.102   5.571
   36DPPC  H12X 4666   1.168   2.048   5.539
   36DPPC  H12Y 4667   1.229   2.187   5.636
   36DPPC  C313 4668   1.349   2.010   5.656
   36DPPC  H13X 4669   1.440   2.066   5.689
   36DPPC  H13Y 4670   1.382   1.926   5.592
   36DPPC  C314 4671   1.275   1.959   5.780
   36DPPC  H14X 4672   1.179   1.916   5.744
   36DPPC  H14Y 4673   1.250   2.044   5.847
   36DPPC  C315 4674   1.348   1.850   5.859
   36DPPC  H15X 4675   1.281   1.816   5.941
   36DPPC  H15Y 4676   1.438   1.893   5.908
   36DPPC  C316 4677   1.389   1.730   5.775
   36DPPC  H16X 4678   1.473   1.756   5.706
   36DPPC  H16Y 4679   1.305   1.694   5.713
   36DPPC  H16Z 4680   1.423   1.646   5.840
   37DPPC     N 4681   2.839   2.907   4.134
   37DPPC   C13 4682   2.728   2.957   4.046
   37DPPC  H13A 4683   2.728   2.913   3.947
   37DPPC  H13B 4684   2.733   3.066   4.040
   37DPPC  H13C 4685   2.632   2.937   4.093
   37DPPC   C14 4686   2.842   2.758   4.130
   37DPPC  H14A 4687   2.752   2.712   4.167
   37DPPC  H14B 4688   2.926   2.717   4.184
   37DPPC  H14C 4689   2.851   2.724   4.026
   37DPPC   C15 4690   2.967   2.964   4.081
   37DPPC  H15A 4691   3.053   2.927   4.134
   37DPPC  H15B 4692   2.961   3.072   4.092
   37DPPC  H15C 4693   2.981   2.940   3.976
   37DPPC   C12 4694   2.810   2.955   4.277
   37DPPC  H12A 4695   2.884   2.915   4.344
   37DPPC  H12B 4696   2.713   2.914   4.307
   37DPPC   C11 4697   2.795   3.107   4.303
   37DPPC  H11A 4698   2.887   3.161   4.273
   37DPPC  H11B 4699   2.785   3.124   4.413
   37DPPC     P 4700   2.537   3.161   4.292
   37DPPC   O13 4701   2.497   3.019   4.308
   37DPPC   O14 4702   2.447   3.248   4.210
   37DPPC   O11 4703   2.553   3.220   4.437
   37DPPC   O12 4704   2.683   3.160   4.232
   37DPPC    C1 4705   2.454   3.303   4.497
   37DPPC    HA 4706   2.353   3.270   4.466
   37DPPC    HB 4707   2.467   3.409   4.464
   37DPPC    C2 4708   2.455   3.300   4.654
   37DPPC    HS 4709   2.526   3.378   4.690
   37DPPC   O21 4710   2.493   3.169   4.699
   37DPPC   C21 4711   2.625   3.153   4.705
   37DPPC   O22 4712   2.707   3.243   4.713
   37DPPC   C22 4713   2.655   3.004   4.708
   37DPPC   H2R 4714   2.646   2.967   4.604
   37DPPC   H2S 4715   2.578   2.954   4.769
   37DPPC    C3 4716   2.316   3.337   4.714
   37DPPC    HX 4717   2.239   3.277   4.660
   37DPPC    HY 4718   2.297   3.445   4.690
   37DPPC   O31 4719   2.307   3.306   4.855
   37DPPC   C31 4720   2.245   3.394   4.932
   37DPPC   O32 4721   2.195   3.498   4.892
   37DPPC   C32 4722   2.240   3.342   5.076
   37DPPC   H2X 4723   2.153   3.275   5.083
   37DPPC   H2Y 4724   2.220   3.428   5.142
   37DPPC   C23 4725   2.795   2.973   4.765
   37DPPC   H3R 4726   2.872   3.027   4.705
   37DPPC   H3S 4727   2.815   2.864   4.756
   37DPPC   C24 4728   2.811   3.014   4.913
   37DPPC   H4R 4729   2.775   3.118   4.930
   37DPPC   H4S 4730   2.919   3.015   4.937
   37DPPC   C25 4731   2.741   2.920   5.013
   37DPPC   H5R 4732   2.743   2.816   4.974
   37DPPC   H5S 4733   2.634   2.950   5.021
   37DPPC   C26 4734   2.808   2.921   5.152
   37DPPC   H6R 4735   2.867   3.014   5.165
   37DPPC   H6S 4736   2.879   2.836   5.156
   37DPPC   C27 4737   2.708   2.910   5.269
   37DPPC   H7R 4738   2.762   2.872   5.358
   37DPPC   H7S 4739   2.630   2.836   5.241
   37DPPC   C28 4740   2.647   3.047   5.302
   37DPPC   H8R 4741   2.615   3.092   5.206
   37DPPC   H8S 4742   2.727   3.112   5.344
   37DPPC   C29 4743   2.526   3.048   5.397
   37DPPC   H9R 4744   2.439   3.000   5.348
   37DPPC   H9S 4745   2.498   3.154   5.413
   37DPPC  C210 4746   2.553   2.987   5.535
   37DPPC  H10R 4747   2.631   3.048   5.586
   37DPPC  H10S 4748   2.593   2.884   5.523
   37DPPC  C211 4749   2.428   2.979   5.626
   37DPPC  H11R 4750   2.459   2.944   5.728
   37DPPC  H11S 4751   2.360   2.901   5.585
   37DPPC  C212 4752   2.348   3.109   5.640
   37DPPC  H12R 4753   2.262   3.090   5.708
   37DPPC  H12S 4754   2.306   3.135   5.541
   37DPPC  C213 4755   2.425   3.232   5.691
   37DPPC  H13R 4756   2.357   3.319   5.690
   37DPPC  H13S 4757   2.507   3.253   5.620
   37DPPC  C214 4758   2.484   3.218   5.832
   37DPPC  H14R 4759   2.544   3.309   5.854
   37DPPC  H14S 4760   2.553   3.131   5.837
   37DPPC  C215 4761   2.377   3.205   5.941
   37DPPC  H15R 4762   2.323   3.108   5.928
   37DPPC  H15S 4763   2.303   3.287   5.928
   37DPPC  C216 4764   2.435   3.212   6.082
   37DPPC  H16R 4765   2.479   3.312   6.098
   37DPPC  H16S 4766   2.516   3.137   6.095
   37DPPC  H16T 4767   2.358   3.196   6.159
   37DPPC   C33 4768   2.365   3.263   5.123
   37DPPC   H3X 4769   2.398   3.190   5.045
   37DPPC   H3Y 4770   2.337   3.203   5.212
   37DPPC   C34 4771   2.483   3.353   5.163
   37DPPC   H4X 4772   2.500   3.428   5.083
   37DPPC   H4Y 4773   2.575   3.293   5.171
   37DPPC   C35 4774   2.459   3.423   5.297
   37DPPC   H5X 4775   2.443   3.350   5.379
   37DPPC   H5Y 4776   2.366   3.483   5.289
   37DPPC   C36 4777   2.571   3.520   5.337
   37DPPC   H6X 4778   2.534   3.580   5.423
   37DPPC   H6Y 4779   2.587   3.589   5.251
   37DPPC   C37 4780   2.707   3.459   5.377
   37DPPC   H7X 4781   2.777   3.545   5.382
   37DPPC   H7Y 4782   2.744   3.389   5.299
   37DPPC   C38 4783   2.709   3.393   5.515
   37DPPC   H8X 4784   2.681   3.286   5.505
   37DPPC   H8Y 4785   2.633   3.442   5.579
   37DPPC   C39 4786   2.845   3.404   5.587
   37DPPC   H9X 4787   2.881   3.509   5.584
   37DPPC   H9Y 4788   2.919   3.341   5.532
   37DPPC  C310 4789   2.838   3.359   5.734
   37DPPC  H10X 4790   2.782   3.263   5.738
   37DPPC  H10Y 4791   2.780   3.434   5.793
   37DPPC  C311 4792   2.977   3.340   5.796
   37DPPC  H11X 4793   3.036   3.434   5.787
   37DPPC  H11Y 4794   3.030   3.263   5.736
   37DPPC  C312 4795   2.979   3.294   5.944
   37DPPC  H12X 4796   2.969   3.381   6.012
   37DPPC  H12Y 4797   3.080   3.251   5.964
   37DPPC  C313 4798   2.872   3.189   5.978
   37DPPC  H13X 4799   2.865   3.119   5.892
   37DPPC  H13Y 4800   2.773   3.237   5.990
   37DPPC  C314 4801   2.905   3.105   6.103
   37DPPC  H14X 4802   3.012   3.073   6.097
   37DPPC  H14Y 4803   2.844   3.013   6.103
   37DPPC  C315 4804   2.882   3.178   6.236
   37DPPC  H15X 4805   2.879   3.288   6.220
   37DPPC  H15Y 4806   2.971   3.159   6.301
   37DPPC  C316 4807   2.758   3.131   6.312
   37DPPC  H16X 4808   2.762   3.164   6.418
   37DPPC  H16Y 4809   2.751   3.020   6.311
   37DPPC  H16Z 4810   2.666   3.171   6.266
   38DPPC     N 4811   1.117   2.937   4.194
   38DPPC   C13 4812   1.045   3.066   4.205
   38DPPC  H13A 4813   0.957   3.058   4.267
   38DPPC  H13B 4814   1.016   3.103   4.107
   38DPPC  H13C 4815   1.108   3.143   4.252
   38DPPC   C14 4816   1.159   2.890   4.330
   38DPPC  H14A 4817   1.075   2.862   4.391
   38DPPC  H14B 4818   1.217   2.966   4.382
   38DPPC  H14C 4819   1.227   2.805   4.320
   38DPPC   C15 4820   1.025   2.835   4.134
   38DPPC  H15A 4821   1.079   2.743   4.114
   38DPPC  H15B 4822   0.977   2.873   4.044
   38DPPC  H15C 4823   0.946   2.813   4.205
   38DPPC   C12 4824   1.241   2.956   4.107
   38DPPC  H12A 4825   1.296   3.042   4.142
   38DPPC  H12B 4826   1.210   2.977   4.005
   38DPPC   C11 4827   1.343   2.839   4.100
   38DPPC  H11A 4828   1.412   2.861   4.015
   38DPPC  H11B 4829   1.287   2.746   4.076
   38DPPC     P 4830   1.514   2.701   4.235
   38DPPC   O13 4831   1.557   2.657   4.100
   38DPPC   O14 4832   1.440   2.598   4.309
   38DPPC   O11 4833   1.640   2.757   4.311
   38DPPC   O12 4834   1.418   2.828   4.221
   38DPPC    C1 4835   1.744   2.661   4.337
   38DPPC    HA 4836   1.835   2.688   4.279
   38DPPC    HB 4837   1.719   2.554   4.313
   38DPPC    C2 4838   1.774   2.668   4.486
   38DPPC    HS 4839   1.859   2.601   4.510
   38DPPC   O21 4840   1.654   2.640   4.559
   38DPPC   C21 4841   1.646   2.521   4.614
   38DPPC   O22 4842   1.731   2.434   4.608
   38DPPC   C22 4843   1.524   2.514   4.707
   38DPPC   H2R 4844   1.464   2.607   4.698
   38DPPC   H2S 4845   1.566   2.508   4.810
   38DPPC    C3 4846   1.816   2.813   4.517
   38DPPC    HX 4847   1.725   2.878   4.519
   38DPPC    HY 4848   1.880   2.849   4.433
   38DPPC   O31 4849   1.892   2.818   4.639
   38DPPC   C31 4850   1.818   2.791   4.746
   38DPPC   O32 4851   1.700   2.822   4.760
   38DPPC   C32 4852   1.901   2.707   4.843
   38DPPC   H2X 4853   1.977   2.771   4.891
   38DPPC   H2Y 4854   1.954   2.631   4.783
   38DPPC   C23 4855   1.434   2.390   4.686
   38DPPC   H3R 4856   1.498   2.302   4.659
   38DPPC   H3S 4857   1.365   2.407   4.601
   38DPPC   C24 4858   1.356   2.347   4.813
   38DPPC   H4R 4859   1.427   2.333   4.897
   38DPPC   H4S 4860   1.312   2.247   4.789
   38DPPC   C25 4861   1.241   2.440   4.858
   38DPPC   H5R 4862   1.158   2.375   4.895
   38DPPC   H5S 4863   1.203   2.497   4.770
   38DPPC   C26 4864   1.278   2.536   4.973
   38DPPC   H6R 4865   1.356   2.606   4.938
   38DPPC   H6S 4866   1.321   2.476   5.057
   38DPPC   C27 4867   1.157   2.616   5.026
   38DPPC   H7R 4868   1.085   2.546   5.074
   38DPPC   H7S 4869   1.106   2.663   4.939
   38DPPC   C28 4870   1.194   2.727   5.127
   38DPPC   H8R 4871   1.104   2.786   5.151
   38DPPC   H8S 4872   1.267   2.795   5.077
   38DPPC   C29 4873   1.255   2.673   5.257
   38DPPC   H9R 4874   1.346   2.615   5.231
   38DPPC   H9S 4875   1.184   2.601   5.305
   38DPPC  C210 4876   1.296   2.780   5.360
   38DPPC  H10R 4877   1.352   2.729   5.443
   38DPPC  H10S 4878   1.206   2.826   5.405
   38DPPC  C211 4879   1.385   2.891   5.302
   38DPPC  H11R 4880   1.321   2.970   5.258
   38DPPC  H11S 4881   1.446   2.849   5.219
   38DPPC  C212 4882   1.482   2.954   5.403
   38DPPC  H12R 4883   1.531   3.040   5.352
   38DPPC  H12S 4884   1.561   2.880   5.430
   38DPPC  C213 4885   1.419   3.007   5.532
   38DPPC  H13R 4886   1.378   2.923   5.592
   38DPPC  H13S 4887   1.335   3.076   5.507
   38DPPC  C214 4888   1.523   3.084   5.617
   38DPPC  H14R 4889   1.562   3.170   5.558
   38DPPC  H14S 4890   1.608   3.016   5.638
   38DPPC  C215 4891   1.467   3.135   5.750
   38DPPC  H15R 4892   1.553   3.169   5.814
   38DPPC  H15S 4893   1.419   3.050   5.803
   38DPPC  C216 4894   1.368   3.251   5.736
   38DPPC  H16R 4895   1.337   3.289   5.836
   38DPPC  H16S 4896   1.277   3.218   5.682
   38DPPC  H16T 4897   1.414   3.335   5.680
   38DPPC   C33 4898   1.812   2.635   4.947
   38DPPC   H3X 4899   1.835   2.526   4.944
   38DPPC   H3Y 4900   1.705   2.645   4.920
   38DPPC   C34 4901   1.826   2.685   5.092
   38DPPC   H4X 4902   1.856   2.792   5.092
   38DPPC   H4Y 4903   1.908   2.631   5.143
   38DPPC   C35 4904   1.696   2.673   5.173
   38DPPC   H5X 4905   1.630   2.756   5.137
   38DPPC   H5Y 4906   1.718   2.694   5.280
   38DPPC   C36 4907   1.615   2.542   5.155
   38DPPC   H6X 4908   1.660   2.478   5.077
   38DPPC   H6Y 4909   1.515   2.571   5.117
   38DPPC   C37 4910   1.595   2.453   5.280
   38DPPC   H7X 4911   1.689   2.397   5.300
   38DPPC   H7Y 4912   1.521   2.376   5.251
   38DPPC   C38 4913   1.545   2.518   5.409
   38DPPC   H8X 4914   1.434   2.521   5.406
   38DPPC   H8Y 4915   1.582   2.623   5.418
   38DPPC   C39 4916   1.588   2.442   5.535
   38DPPC   H9X 4917   1.698   2.440   5.544
   38DPPC   H9Y 4918   1.556   2.336   5.528
   38DPPC  C310 4919   1.531   2.504   5.663
   38DPPC  H10X 4920   1.420   2.509   5.655
   38DPPC  H10Y 4921   1.570   2.608   5.672
   38DPPC  C311 4922   1.568   2.424   5.789
   38DPPC  H11X 4923   1.678   2.424   5.802
   38DPPC  H11Y 4924   1.537   2.319   5.772
   38DPPC  C312 4925   1.499   2.476   5.916
   38DPPC  H12X 4926   1.525   2.410   6.002
   38DPPC  H12Y 4927   1.389   2.468   5.902
   38DPPC  C313 4928   1.535   2.620   5.954
   38DPPC  H13X 4929   1.466   2.652   6.035
   38DPPC  H13Y 4930   1.519   2.688   5.868
   38DPPC  C314 4931   1.679   2.633   6.006
   38DPPC  H14X 4932   1.749   2.586   5.933
   38DPPC  H14Y 4933   1.687   2.577   6.101
   38DPPC  C315 4934   1.726   2.778   6.029
   38DPPC  H15X 4935   1.729   2.829   5.930
   38DPPC  H15Y 4936   1.831   2.774   6.067
   38DPPC  C316 4937   1.640   2.858   6.126
   38DPPC  H16X 4938   1.682   2.960   6.139
   38DPPC  H16Y 4939   1.636   2.809   6.225
   38DPPC  H16Z 4940   1.536   2.868   6.087
   39DPPC     N 4941   2.045   3.198   4.330
   39DPPC   C13 4942   1.925   3.118   4.292
   39DPPC  H13A 4943   1.945   3.011   4.296
   39DPPC  H13B 4944   1.899   3.144   4.190
   39DPPC  H13C 4945   1.838   3.144   4.353
   39DPPC   C14 4946   2.097   3.146   4.459
   39DPPC  H14A 4947   2.036   3.177   4.542
   39DPPC  H14B 4948   2.199   3.179   4.476
   39DPPC  H14C 4949   2.098   3.037   4.458
   39DPPC   C15 4950   2.150   3.176   4.224
   39DPPC  H15A 4951   2.116   3.216   4.129
   39DPPC  H15B 4952   2.172   3.070   4.212
   39DPPC  H15C 4953   2.247   3.223   4.244
   39DPPC   C12 4954   2.012   3.347   4.337
   39DPPC  H12A 4955   2.104   3.403   4.349
   39DPPC  H12B 4956   1.952   3.365   4.425
   39DPPC   C11 4957   1.930   3.413   4.221
   39DPPC  H11A 4958   1.991   3.410   4.128
   39DPPC  H11B 4959   1.916   3.521   4.247
   39DPPC     P 4960   1.711   3.379   4.079
   39DPPC   O13 4961   1.773   3.308   3.964
   39DPPC   O14 4962   1.692   3.526   4.067
   39DPPC   O11 4963   1.574   3.309   4.113
   39DPPC   O12 4964   1.803   3.349   4.205
   39DPPC    C1 4965   1.561   3.206   4.212
   39DPPC    HA 4966   1.656   3.150   4.231
   39DPPC    HB 4967   1.488   3.130   4.175
   39DPPC    C2 4968   1.507   3.263   4.346
   39DPPC    HS 4969   1.412   3.312   4.318
   39DPPC   O21 4970   1.604   3.355   4.402
   39DPPC   C21 4971   1.562   3.480   4.410
   39DPPC   O22 4972   1.447   3.518   4.398
   39DPPC   C22 4973   1.675   3.579   4.433
   39DPPC   H2R 4974   1.625   3.673   4.465
   39DPPC   H2S 4975   1.721   3.599   4.333
   39DPPC    C3 4976   1.475   3.151   4.447
   39DPPC    HX 4977   1.430   3.064   4.393
   39DPPC    HY 4978   1.395   3.188   4.516
   39DPPC   O31 4979   1.596   3.108   4.514
   39DPPC   C31 4980   1.614   3.167   4.633
   39DPPC   O32 4981   1.532   3.236   4.690
   39DPPC   C32 4982   1.752   3.139   4.691
   39DPPC   H2X 4983   1.818   3.224   4.667
   39DPPC   H2Y 4984   1.792   3.048   4.642
   39DPPC   C23 4985   1.783   3.536   4.533
   39DPPC   H3R 4986   1.870   3.605   4.520
   39DPPC   H3S 4987   1.818   3.433   4.510
   39DPPC   C24 4988   1.740   3.539   4.681
   39DPPC   H4R 4989   1.671   3.454   4.699
   39DPPC   H4S 4990   1.685   3.633   4.704
   39DPPC   C25 4991   1.864   3.529   4.772
   39DPPC   H5R 4992   1.907   3.631   4.785
   39DPPC   H5S 4993   1.941   3.469   4.720
   39DPPC   C26 4994   1.843   3.465   4.910
   39DPPC   H6R 4995   1.922   3.504   4.978
   39DPPC   H6S 4996   1.862   3.357   4.900
   39DPPC   C27 4997   1.705   3.486   4.975
   39DPPC   H7R 4998   1.634   3.411   4.933
   39DPPC   H7S 4999   1.664   3.586   4.950
   39DPPC   C28 5000   1.709   3.473   5.129
   39DPPC   H8R 5001   1.740   3.568   5.174
   39DPPC   H8S 5002   1.790   3.405   5.159
   39DPPC   C29 5003   1.577   3.425   5.190
   39DPPC   H9R 5004   1.556   3.322   5.153
   39DPPC   H9S 5005   1.494   3.490   5.155
   39DPPC  C210 5006   1.577   3.423   5.344
   39DPPC  H10R 5007   1.660   3.357   5.379
   39DPPC  H10S 5008   1.482   3.378   5.379
   39DPPC  C211 5009   1.592   3.563   5.405
   39DPPC  H11R 5010   1.516   3.630   5.359
   39DPPC  H11S 5011   1.693   3.603   5.381
   39DPPC  C212 5012   1.574   3.567   5.557
   39DPPC  H12R 5013   1.470   3.539   5.583
   39DPPC  H12S 5014   1.589   3.673   5.591
   39DPPC  C213 5015   1.672   3.478   5.634
   39DPPC  H13R 5016   1.776   3.503   5.604
   39DPPC  H13S 5017   1.655   3.371   5.607
   39DPPC  C214 5018   1.657   3.494   5.786
   39DPPC  H14R 5019   1.550   3.477   5.813
   39DPPC  H14S 5020   1.682   3.598   5.813
   39DPPC  C215 5021   1.743   3.395   5.866
   39DPPC  H15R 5022   1.850   3.419   5.851
   39DPPC  H15S 5023   1.727   3.293   5.824
   39DPPC  C216 5024   1.710   3.394   6.015
   39DPPC  H16R 5025   1.759   3.310   6.067
   39DPPC  H16S 5026   1.600   3.386   6.031
   39DPPC  H16T 5027   1.746   3.488   6.063
   39DPPC   C33 5028   1.744   3.118   4.844
   39DPPC   H3X 5029   1.654   3.054   4.867
   39DPPC   H3Y 5030   1.723   3.214   4.894
   39DPPC   C34 5031   1.865   3.045   4.906
   39DPPC   H4X 5032   1.937   3.019   4.825
   39DPPC   H4Y 5033   1.827   2.951   4.951
   39DPPC   C35 5034   1.943   3.115   5.018
   39DPPC   H5X 5035   1.994   3.202   4.972
   39DPPC   H5Y 5036   2.022   3.047   5.056
   39DPPC   C36 5037   1.856   3.162   5.134
   39DPPC   H6X 5038   1.773   3.221   5.090
   39DPPC   H6Y 5039   1.916   3.232   5.197
   39DPPC   C37 5040   1.788   3.056   5.222
   39DPPC   H7X 5041   1.740   2.979   5.158
   39DPPC   H7Y 5042   1.707   3.109   5.278
   39DPPC   C38 5043   1.879   2.990   5.326
   39DPPC   H8X 5044   1.970   2.950   5.275
   39DPPC   H8Y 5045   1.825   2.903   5.372
   39DPPC   C39 5046   1.920   3.085   5.439
   39DPPC   H9X 5047   1.833   3.101   5.507
   39DPPC   H9Y 5048   1.945   3.185   5.397
   39DPPC  C310 5049   2.043   3.036   5.517
   39DPPC  H10X 5050   2.072   3.116   5.589
   39DPPC  H10Y 5051   2.128   3.024   5.445
   39DPPC  C311 5052   2.023   2.905   5.593
   39DPPC  H11X 5053   2.115   2.886   5.653
   39DPPC  H11Y 5054   2.013   2.821   5.520
   39DPPC  C312 5055   1.901   2.903   5.688
   39DPPC  H12X 5056   1.901   2.809   5.747
   39DPPC  H12Y 5057   1.809   2.901   5.625
   39DPPC  C313 5058   1.893   3.023   5.783
   39DPPC  H13X 5059   1.792   3.025   5.830
   39DPPC  H13Y 5060   1.902   3.117   5.725
   39DPPC  C314 5061   1.997   3.021   5.895
   39DPPC  H14X 5062   2.097   2.992   5.855
   39DPPC  H14Y 5063   1.968   2.946   5.971
   39DPPC  C315 5064   2.009   3.159   5.961
   39DPPC  H15X 5065   1.908   3.205   5.960
   39DPPC  H15Y 5066   2.075   3.224   5.900
   39DPPC  C316 5067   2.058   3.154   6.105
   39DPPC  H16X 5068   2.157   3.105   6.112
   39DPPC  H16Y 5069   1.985   3.098   6.168
   39DPPC  H16Z 5070   2.067   3.256   6.147
   40DPPC     N 5071   1.767   1.061   4.023
   40DPPC   C13 5072   1.626   1.021   4.056
   40DPPC  H13A 5073   1.604   1.053   4.159
   40DPPC  H13B 5074   1.608   0.914   4.054
   40DPPC  H13C 5075   1.555   1.070   3.992
   40DPPC   C14 5076   1.856   0.997   4.127
   40DPPC  H14A 5077   1.844   0.890   4.132
   40DPPC  H14B 5078   1.825   1.038   4.224
   40DPPC  H14C 5079   1.959   1.022   4.112
   40DPPC   C15 5080   1.801   1.023   3.883
   40DPPC  H15A 5081   1.903   1.049   3.858
   40DPPC  H15B 5082   1.737   1.075   3.812
   40DPPC  H15C 5083   1.789   0.917   3.869
   40DPPC   C12 5084   1.780   1.211   4.037
   40DPPC  H12A 5085   1.696   1.256   3.985
   40DPPC  H12B 5086   1.869   1.247   3.986
   40DPPC   C11 5087   1.781   1.262   4.182
   40DPPC  H11A 5088   1.760   1.372   4.180
   40DPPC  H11B 5089   1.884   1.249   4.224
   40DPPC     P 5090   1.669   1.236   4.413
   40DPPC   O13 5091   1.535   1.196   4.459
   40DPPC   O14 5092   1.706   1.379   4.416
   40DPPC   O11 5093   1.789   1.158   4.484
   40DPPC   O12 5094   1.686   1.191   4.263
   40DPPC    C1 5095   1.772   1.044   4.569
   40DPPC    HA 5096   1.861   0.978   4.555
   40DPPC    HB 5097   1.682   0.983   4.542
   40DPPC    C2 5098   1.766   1.081   4.721
   40DPPC    HS 5099   1.800   0.991   4.777
   40DPPC   O21 5100   1.632   1.114   4.754
   40DPPC   C21 5101   1.602   1.111   4.882
   40DPPC   O22 5102   1.651   1.038   4.966
   40DPPC   C22 5103   1.509   1.231   4.908
   40DPPC   H2R 5104   1.461   1.256   4.811
   40DPPC   H2S 5105   1.571   1.318   4.935
   40DPPC    C3 5106   1.859   1.202   4.756
   40DPPC    HX 5107   1.820   1.288   4.696
   40DPPC    HY 5108   1.959   1.176   4.719
   40DPPC   O31 5109   1.865   1.232   4.899
   40DPPC   C31 5110   1.882   1.361   4.931
   40DPPC   O32 5111   1.905   1.450   4.851
   40DPPC   C32 5112   1.874   1.385   5.082
   40DPPC   H2X 5113   1.836   1.489   5.095
   40DPPC   H2Y 5114   1.977   1.381   5.123
   40DPPC   C23 5115   1.397   1.204   5.012
   40DPPC   H3R 5116   1.386   1.095   5.025
   40DPPC   H3S 5117   1.304   1.245   4.967
   40DPPC   C24 5118   1.410   1.262   5.153
   40DPPC   H4R 5119   1.475   1.351   5.153
   40DPPC   H4S 5120   1.457   1.187   5.219
   40DPPC   C25 5121   1.271   1.304   5.207
   40DPPC   H5R 5122   1.204   1.216   5.211
   40DPPC   H5S 5123   1.226   1.377   5.136
   40DPPC   C26 5124   1.276   1.369   5.346
   40DPPC   H6R 5125   1.178   1.416   5.368
   40DPPC   H6S 5126   1.353   1.449   5.345
   40DPPC   C27 5127   1.308   1.266   5.455
   40DPPC   H7R 5128   1.397   1.207   5.424
   40DPPC   H7S 5129   1.222   1.196   5.464
   40DPPC   C28 5130   1.337   1.326   5.594
   40DPPC   H8R 5131   1.344   1.239   5.664
   40DPPC   H8S 5132   1.251   1.388   5.627
   40DPPC   C29 5133   1.468   1.406   5.602
   40DPPC   H9R 5134   1.448   1.515   5.593
   40DPPC   H9S 5135   1.531   1.380   5.514
   40DPPC  C210 5136   1.547   1.373   5.729
   40DPPC  H10R 5137   1.551   1.262   5.738
   40DPPC  H10S 5138   1.491   1.411   5.817
   40DPPC  C211 5139   1.692   1.425   5.730
   40DPPC  H11R 5140   1.728   1.436   5.625
   40DPPC  H11S 5141   1.757   1.348   5.776
   40DPPC  C212 5142   1.716   1.554   5.809
   40DPPC  H12R 5143   1.647   1.632   5.768
   40DPPC  H12S 5144   1.820   1.590   5.791
   40DPPC  C213 5145   1.695   1.539   5.961
   40DPPC  H13R 5146   1.786   1.495   6.008
   40DPPC  H13S 5147   1.612   1.468   5.978
   40DPPC  C214 5148   1.661   1.672   6.030
   40DPPC  H14R 5149   1.591   1.730   5.965
   40DPPC  H14S 5150   1.754   1.733   6.041
   40DPPC  C215 5151   1.593   1.659   6.168
   40DPPC  H15R 5152   1.579   1.761   6.209
   40DPPC  H15S 5153   1.662   1.606   6.236
   40DPPC  C216 5154   1.457   1.588   6.164
   40DPPC  H16R 5155   1.408   1.592   6.264
   40DPPC  H16S 5156   1.468   1.481   6.136
   40DPPC  H16T 5157   1.390   1.637   6.091
   40DPPC   C33 5158   1.783   1.285   5.154
   40DPPC   H3X 5159   1.836   1.187   5.158
   40DPPC   H3Y 5160   1.689   1.269   5.098
   40DPPC   C34 5161   1.742   1.329   5.295
   40DPPC   H4X 5162   1.654   1.396   5.290
   40DPPC   H4Y 5163   1.825   1.386   5.343
   40DPPC   C35 5164   1.711   1.204   5.378
   40DPPC   H5X 5165   1.671   1.126   5.310
   40DPPC   H5Y 5166   1.635   1.222   5.456
   40DPPC   C36 5167   1.837   1.153   5.448
   40DPPC   H6X 5168   1.865   1.225   5.529
   40DPPC   H6Y 5169   1.921   1.152   5.375
   40DPPC   C37 5170   1.820   1.011   5.502
   40DPPC   H7X 5171   1.917   0.958   5.489
   40DPPC   H7Y 5172   1.742   0.959   5.442
   40DPPC   C38 5173   1.776   0.999   5.648
   40DPPC   H8X 5174   1.760   0.891   5.671
   40DPPC   H8Y 5175   1.678   1.051   5.661
   40DPPC   C39 5176   1.881   1.056   5.742
   40DPPC   H9X 5177   1.881   1.166   5.729
   40DPPC   H9Y 5178   1.982   1.019   5.714
   40DPPC  C310 5179   1.854   1.026   5.889
   40DPPC  H10X 5180   1.940   1.064   5.949
   40DPPC  H10Y 5181   1.847   0.917   5.906
   40DPPC  C311 5182   1.727   1.096   5.935
   40DPPC  H11X 5183   1.637   1.047   5.891
   40DPPC  H11Y 5184   1.728   1.201   5.900
   40DPPC  C312 5185   1.715   1.104   6.086
   40DPPC  H12X 5186   1.631   1.172   6.111
   40DPPC  H12Y 5187   1.805   1.147   6.130
   40DPPC  C313 5188   1.685   0.968   6.146
   40DPPC  H13X 5189   1.647   0.901   6.066
   40DPPC  H13Y 5190   1.602   0.985   6.218
   40DPPC  C314 5191   1.801   0.897   6.215
   40DPPC  H14X 5192   1.886   0.888   6.144
   40DPPC  H14Y 5193   1.766   0.794   6.239
   40DPPC  C315 5194   1.846   0.964   6.345
   40DPPC  H15X 5195   1.901   1.056   6.317
   40DPPC  H15Y 5196   1.918   0.895   6.396
   40DPPC  C316 5197   1.737   1.003   6.444
   40DPPC  H16X 5198   1.657   1.063   6.396
   40DPPC  H16Y 5199   1.779   1.064   6.526
   40DPPC  H16Z 5200   1.691   0.911   6.486
   41DPPC     N 5201   2.994   1.229   4.186
   41DPPC   C13 5202   2.887   1.256   4.085
   41DPPC  H13A 5203   2.875   1.365   4.075
   41DPPC  H13B 5204   2.791   1.214   4.112
   41DPPC  H13C 5205   2.912   1.217   3.988
   41DPPC   C14 5206   2.952   1.295   4.314
   41DPPC  H14A 5207   2.954   1.404   4.301
   41DPPC  H14B 5208   3.024   1.281   4.394
   41DPPC  H14C 5209   2.854   1.269   4.349
   41DPPC   C15 5210   3.013   1.083   4.209
   41DPPC  H15A 5211   2.922   1.036   4.243
   41DPPC  H15B 5212   3.089   1.068   4.286
   41DPPC  H15C 5213   3.048   1.033   4.120
   41DPPC   C12 5214   3.125   1.295   4.143
   41DPPC  H12A 5215   3.184   1.225   4.086
   41DPPC  H12B 5216   3.183   1.320   4.233
   41DPPC   C11 5217   3.115   1.428   4.062
   41DPPC  H11A 5218   3.055   1.409   3.972
   41DPPC  H11B 5219   3.217   1.457   4.027
   41DPPC     P 5220   3.128   1.596   4.262
   41DPPC   O13 5221   3.048   1.554   4.379
   41DPPC   O14 5222   3.159   1.740   4.250
   41DPPC   O11 5223   3.261   1.509   4.260
   41DPPC   O12 5224   3.053   1.536   4.134
   41DPPC    C1 5225   3.368   1.543   4.348
   41DPPC    HA 5226   3.360   1.648   4.385
   41DPPC    HB 5227   3.464   1.540   4.292
   41DPPC    C2 5228   3.384   1.448   4.471
   41DPPC    HS 5229   3.458   1.370   4.442
   41DPPC   O21 5230   3.260   1.392   4.518
   41DPPC   C21 5231   3.254   1.262   4.518
   41DPPC   O22 5232   3.314   1.186   4.442
   41DPPC   C22 5233   3.164   1.216   4.634
   41DPPC   H2R 5234   3.230   1.160   4.703
   41DPPC   H2S 5235   3.089   1.145   4.594
   41DPPC    C3 5236   3.442   1.528   4.590
   41DPPC    HX 5237   3.541   1.564   4.554
   41DPPC    HY 5238   3.458   1.460   4.677
   41DPPC   O31 5239   3.360   1.641   4.619
   41DPPC   C31 5240   3.317   1.666   4.741
   41DPPC   O32 5241   3.343   1.604   4.842
   41DPPC   C32 5242   3.235   1.795   4.730
   41DPPC   H2X 5243   3.164   1.779   4.645
   41DPPC   H2Y 5244   3.304   1.877   4.701
   41DPPC   C23 5245   3.095   1.331   4.711
   41DPPC   H3R 5246   3.022   1.378   4.642
   41DPPC   H3S 5247   3.170   1.409   4.739
   41DPPC   C24 5248   3.023   1.288   4.840
   41DPPC   H4R 5249   2.956   1.203   4.818
   41DPPC   H4S 5250   2.960   1.374   4.873
   41DPPC   C25 5251   3.117   1.254   4.957
   41DPPC   H5R 5252   3.182   1.342   4.978
   41DPPC   H5S 5253   3.183   1.168   4.929
   41DPPC   C26 5254   3.039   1.218   5.085
   41DPPC   H6R 5255   2.972   1.132   5.061
   41DPPC   H6S 5256   2.973   1.304   5.110
   41DPPC   C27 5257   3.123   1.182   5.208
   41DPPC   H7R 5258   3.184   1.091   5.189
   41DPPC   H7S 5259   3.052   1.158   5.290
   41DPPC   C28 5260   3.216   1.295   5.257
   41DPPC   H8R 5261   3.181   1.391   5.211
   41DPPC   H8S 5262   3.319   1.278   5.221
   41DPPC   C29 5263   3.215   1.316   5.410
   41DPPC   H9R 5264   3.110   1.334   5.442
   41DPPC   H9S 5265   3.273   1.408   5.433
   41DPPC  C210 5266   3.269   1.199   5.492
   41DPPC  H10R 5267   3.373   1.176   5.460
   41DPPC  H10S 5268   3.206   1.110   5.473
   41DPPC  C211 5269   3.268   1.228   5.643
   41DPPC  H11R 5270   3.164   1.253   5.675
   41DPPC  H11S 5271   3.331   1.318   5.664
   41DPPC  C212 5272   3.318   1.111   5.729
   41DPPC  H12R 5273   3.422   1.087   5.697
   41DPPC  H12S 5274   3.255   1.021   5.710
   41DPPC  C213 5275   3.320   1.142   5.879
   41DPPC  H13R 5276   3.216   1.165   5.913
   41DPPC  H13S 5277   3.382   1.232   5.897
   41DPPC  C214 5278   3.375   1.026   5.962
   41DPPC  H14R 5279   3.474   0.994   5.922
   41DPPC  H14S 5280   3.305   0.940   5.953
   41DPPC  C215 5281   3.393   1.062   6.110
   41DPPC  H15R 5282   3.300   1.110   6.145
   41DPPC  H15S 5283   3.473   1.138   6.121
   41DPPC  C216 5284   3.426   0.940   6.197
   41DPPC  H16R 5285   3.532   0.910   6.183
   41DPPC  H16S 5286   3.362   0.853   6.169
   41DPPC  H16T 5287   3.409   0.962   6.304
   41DPPC   C33 5288   3.154   1.836   4.854
   41DPPC   H3X 5289   3.094   1.748   4.887
   41DPPC   H3Y 5290   3.082   1.916   4.825
   41DPPC   C34 5291   3.237   1.891   4.971
   41DPPC   H4X 5292   3.304   1.971   4.935
   41DPPC   H4Y 5293   3.301   1.809   5.009
   41DPPC   C35 5294   3.149   1.945   5.086
   41DPPC   H5X 5295   3.103   2.041   5.054
   41DPPC   H5Y 5296   3.215   1.967   5.173
   41DPPC   C36 5297   3.036   1.851   5.131
   41DPPC   H6X 5298   2.958   1.849   5.051
   41DPPC   H6Y 5299   2.987   1.893   5.222
   41DPPC   C37 5300   3.079   1.706   5.159
   41DPPC   H7X 5301   3.144   1.703   5.249
   41DPPC   H7Y 5302   3.141   1.668   5.075
   41DPPC   C38 5303   2.960   1.610   5.173
   41DPPC   H8X 5304   3.000   1.506   5.171
   41DPPC   H8Y 5305   2.893   1.619   5.085
   41DPPC   C39 5306   2.879   1.627   5.302
   41DPPC   H9X 5307   2.797   1.551   5.302
   41DPPC   H9Y 5308   2.833   1.728   5.308
   41DPPC  C310 5309   2.966   1.606   5.425
   41DPPC  H10X 5310   3.026   1.698   5.444
   41DPPC  H10Y 5311   3.039   1.524   5.403
   41DPPC  C311 5312   2.887   1.566   5.550
   41DPPC  H11X 5313   2.821   1.479   5.525
   41DPPC  H11Y 5314   2.821   1.650   5.582
   41DPPC  C312 5315   2.979   1.525   5.666
   41DPPC  H12X 5316   3.038   1.436   5.635
   41DPPC  H12Y 5317   2.917   1.495   5.753
   41DPPC  C313 5318   3.074   1.638   5.709
   41DPPC  H13X 5319   3.051   1.662   5.814
   41DPPC  H13Y 5320   3.051   1.729   5.650
   41DPPC  C314 5321   3.224   1.608   5.691
   41DPPC  H14X 5322   3.272   1.696   5.641
   41DPPC  H14Y 5323   3.236   1.522   5.622
   41DPPC  C315 5324   3.300   1.581   5.821
   41DPPC  H15X 5325   3.317   1.678   5.874
   41DPPC  H15Y 5326   3.401   1.541   5.795
   41DPPC  C316 5327   3.231   1.485   5.917
   41DPPC  H16X 5328   3.202   1.392   5.865
   41DPPC  H16Y 5329   3.139   1.531   5.958
   41DPPC  H16Z 5330   3.298   1.459   6.002
   42DPPC     N 5331   2.626   0.791   4.083
   42DPPC   C13 5332   2.649   0.644   4.093
   42DPPC  H13A 5333   2.653   0.603   3.992
   42DPPC  H13B 5334   2.566   0.598   4.143
   42DPPC  H13C 5335   2.745   0.622   4.139
   42DPPC   C14 5336   2.738   0.852   4.005
   42DPPC  H14A 5337   2.751   0.801   3.911
   42DPPC  H14B 5338   2.833   0.842   4.057
   42DPPC  H14C 5339   2.719   0.956   3.985
   42DPPC   C15 5340   2.498   0.809   4.007
   42DPPC  H15A 5341   2.470   0.914   4.011
   42DPPC  H15B 5342   2.418   0.756   4.058
   42DPPC  H15C 5343   2.505   0.777   3.905
   42DPPC   C12 5344   2.612   0.851   4.221
   42DPPC  H12A 5345   2.707   0.857   4.272
   42DPPC  H12B 5346   2.552   0.783   4.281
   42DPPC   C11 5347   2.539   0.987   4.233
   42DPPC  H11A 5348   2.590   1.061   4.166
   42DPPC  H11B 5349   2.549   1.023   4.338
   42DPPC     P 5350   2.295   0.901   4.287
   42DPPC   O13 5351   2.202   0.829   4.198
   42DPPC   O14 5352   2.237   0.989   4.390
   42DPPC   O11 5353   2.388   0.796   4.354
   42DPPC   O12 5354   2.400   0.980   4.198
   42DPPC    C1 5355   2.360   0.658   4.355
   42DPPC    HA 5356   2.398   0.610   4.262
   42DPPC    HB 5357   2.251   0.639   4.365
   42DPPC    C2 5358   2.427   0.594   4.478
   42DPPC    HS 5359   2.436   0.485   4.460
   42DPPC   O21 5360   2.330   0.618   4.581
   42DPPC   C21 5361   2.362   0.634   4.706
   42DPPC   O22 5362   2.470   0.610   4.758
   42DPPC   C22 5363   2.239   0.680   4.782
   42DPPC   H2R 5364   2.147   0.640   4.733
   42DPPC   H2S 5365   2.237   0.791   4.775
   42DPPC    C3 5366   2.570   0.654   4.507
   42DPPC    HX 5367   2.628   0.647   4.413
   42DPPC    HY 5368   2.621   0.586   4.580
   42DPPC   O31 5369   2.568   0.791   4.553
   42DPPC   C31 5370   2.666   0.827   4.635
   42DPPC   O32 5371   2.766   0.762   4.660
   42DPPC   C32 5372   2.639   0.968   4.690
   42DPPC   H2X 5373   2.550   1.011   4.638
   42DPPC   H2Y 5374   2.727   1.030   4.666
   42DPPC   C23 5375   2.247   0.634   4.928
   42DPPC   H3R 5376   2.345   0.664   4.970
   42DPPC   H3S 5377   2.243   0.522   4.932
   42DPPC   C24 5378   2.136   0.690   5.017
   42DPPC   H4R 5379   2.148   0.647   5.119
   42DPPC   H4S 5380   2.038   0.654   4.977
   42DPPC   C25 5381   2.131   0.843   5.027
   42DPPC   H5R 5382   2.040   0.871   5.085
   42DPPC   H5S 5383   2.116   0.885   4.925
   42DPPC   C26 5384   2.254   0.910   5.091
   42DPPC   H6R 5385   2.228   1.017   5.107
   42DPPC   H6S 5386   2.338   0.908   5.019
   42DPPC   C27 5387   2.300   0.851   5.225
   42DPPC   H7R 5388   2.215   0.808   5.282
   42DPPC   H7S 5389   2.340   0.936   5.285
   42DPPC   C28 5390   2.414   0.749   5.213
   42DPPC   H8R 5391   2.486   0.783   5.134
   42DPPC   H8S 5392   2.375   0.649   5.183
   42DPPC   C29 5393   2.491   0.734   5.344
   42DPPC   H9R 5394   2.423   0.691   5.421
   42DPPC   H9S 5395   2.522   0.835   5.379
   42DPPC  C210 5396   2.619   0.650   5.333
   42DPPC  H10R 5397   2.686   0.698   5.257
   42DPPC  H10S 5398   2.595   0.548   5.297
   42DPPC  C211 5399   2.694   0.641   5.467
   42DPPC  H11R 5400   2.725   0.743   5.500
   42DPPC  H11S 5401   2.787   0.582   5.452
   42DPPC  C212 5402   2.610   0.575   5.577
   42DPPC  H12R 5403   2.572   0.479   5.536
   42DPPC  H12S 5404   2.524   0.639   5.605
   42DPPC  C213 5405   2.694   0.544   5.701
   42DPPC  H13R 5406   2.731   0.639   5.744
   42DPPC  H13S 5407   2.780   0.485   5.664
   42DPPC  C214 5408   2.629   0.458   5.810
   42DPPC  H14R 5409   2.711   0.422   5.876
   42DPPC  H14S 5410   2.586   0.366   5.766
   42DPPC  C215 5411   2.529   0.530   5.900
   42DPPC  H15R 5412   2.470   0.453   5.955
   42DPPC  H15S 5413   2.458   0.588   5.837
   42DPPC  C216 5414   2.596   0.620   6.004
   42DPPC  H16R 5415   2.647   0.706   5.955
   42DPPC  H16S 5416   2.671   0.563   6.062
   42DPPC  H16T 5417   2.521   0.660   6.075
   42DPPC   C33 5418   2.617   0.968   4.843
   42DPPC   H3X 5419   2.693   0.902   4.891
   42DPPC   H3Y 5420   2.516   0.926   4.866
   42DPPC   C34 5421   2.631   1.108   4.905
   42DPPC   H4X 5422   2.555   1.176   4.862
   42DPPC   H4Y 5423   2.732   1.148   4.878
   42DPPC   C35 5424   2.620   1.107   5.059
   42DPPC   H5X 5425   2.687   1.028   5.099
   42DPPC   H5Y 5426   2.516   1.080   5.087
   42DPPC   C36 5427   2.660   1.241   5.123
   42DPPC   H6X 5428   2.591   1.321   5.089
   42DPPC   H6Y 5429   2.761   1.268   5.087
   42DPPC   C37 5430   2.662   1.235   5.277
   42DPPC   H7X 5431   2.724   1.320   5.316
   42DPPC   H7Y 5432   2.711   1.141   5.309
   42DPPC   C38 5433   2.522   1.245   5.337
   42DPPC   H8X 5434   2.456   1.169   5.291
   42DPPC   H8Y 5435   2.480   1.345   5.312
   42DPPC   C39 5436   2.519   1.226   5.490
   42DPPC   H9X 5437   2.416   1.253   5.523
   42DPPC   H9Y 5438   2.589   1.296   5.541
   42DPPC  C310 5439   2.541   1.081   5.534
   42DPPC  H10X 5440   2.649   1.056   5.534
   42DPPC  H10Y 5441   2.489   1.016   5.461
   42DPPC  C311 5442   2.479   1.056   5.672
   42DPPC  H11X 5443   2.377   1.102   5.675
   42DPPC  H11Y 5444   2.541   1.106   5.749
   42DPPC  C312 5445   2.460   0.907   5.707
   42DPPC  H12X 5446   2.560   0.859   5.715
   42DPPC  H12Y 5447   2.405   0.856   5.624
   42DPPC  C313 5448   2.382   0.888   5.838
   42DPPC  H13X 5449   2.374   0.780   5.861
   42DPPC  H13Y 5450   2.278   0.928   5.826
   42DPPC  C314 5451   2.450   0.961   5.954
   42DPPC  H14X 5452   2.442   1.071   5.939
   42DPPC  H14Y 5453   2.558   0.935   5.954
   42DPPC  C315 5454   2.393   0.929   6.092
   42DPPC  H15X 5455   2.404   0.821   6.114
   42DPPC  H15Y 5456   2.284   0.949   6.093
   42DPPC  C316 5457   2.465   1.010   6.199
   42DPPC  H16X 5458   2.443   1.118   6.188
   42DPPC  H16Y 5459   2.575   0.998   6.187
   42DPPC  H16Z 5460   2.438   0.976   6.301
   43DPPC     N 5461   3.554   2.686   4.019
   43DPPC   C13 5462   3.694   2.637   4.033
   43DPPC  H13A 5463   3.697   2.529   4.029
   43DPPC  H13B 5464   3.736   2.674   4.125
   43DPPC  H13C 5465   3.753   2.676   3.950
   43DPPC   C14 5466   3.559   2.836   4.013
   43DPPC  H14A 5467   3.627   2.873   3.937
   43DPPC  H14B 5468   3.596   2.874   4.108
   43DPPC  H14C 5469   3.463   2.883   4.003
   43DPPC   C15 5470   3.498   2.632   3.892
   43DPPC  H15A 5471   3.487   2.524   3.894
   43DPPC  H15B 5472   3.562   2.657   3.809
   43DPPC  H15C 5473   3.400   2.674   3.871
   43DPPC   C12 5474   3.470   2.645   4.140
   43DPPC  H12A 5475   3.471   2.537   4.148
   43DPPC  H12B 5476   3.368   2.676   4.122
   43DPPC   C11 5477   3.510   2.706   4.277
   43DPPC  H11A 5478   3.618   2.686   4.294
   43DPPC  H11B 5479   3.454   2.655   4.359
   43DPPC     P 5480   3.553   2.935   4.390
   43DPPC   O13 5481   3.491   3.069   4.385
   43DPPC   O14 5482   3.699   2.928   4.367
   43DPPC   O11 5483   3.521   2.857   4.523
   43DPPC   O12 5484   3.479   2.845   4.280
   43DPPC    C1 5485   3.397   2.867   4.593
   43DPPC    HA 5486   3.378   2.773   4.649
   43DPPC    HB 5487   3.312   2.881   4.522
   43DPPC    C2 5488   3.399   2.984   4.695
   43DPPC    HS 5489   3.465   3.064   4.652
   43DPPC   O21 5490   3.446   2.935   4.823
   43DPPC   C21 5491   3.525   3.018   4.890
   43DPPC   O22 5492   3.571   3.122   4.847
   43DPPC   C22 5493   3.550   2.966   5.031
   43DPPC   H2R 5494   3.553   2.856   5.027
   43DPPC   H2S 5495   3.463   2.996   5.093
   43DPPC    C3 5496   3.257   3.044   4.710
   43DPPC    HX 5497   3.227   3.084   4.611
   43DPPC    HY 5498   3.259   3.130   4.780
   43DPPC   O31 5499   3.162   2.941   4.748
   43DPPC   C31 5500   3.153   2.923   4.880
   43DPPC   O32 5501   3.195   2.999   4.965
   43DPPC   C32 5502   3.088   2.786   4.906
   43DPPC   H2X 5503   3.064   2.739   4.809
   43DPPC   H2Y 5504   2.993   2.802   4.960
   43DPPC   C23 5505   3.680   3.024   5.092
   43DPPC   H3R 5506   3.668   3.134   5.103
   43DPPC   H3S 5507   3.765   3.007   5.022
   43DPPC   C24 5508   3.715   2.963   5.228
   43DPPC   H4R 5509   3.758   2.862   5.213
   43DPPC   H4S 5510   3.622   2.949   5.287
   43DPPC   C25 5511   3.813   3.048   5.312
   43DPPC   H5R 5512   3.904   3.069   5.252
   43DPPC   H5S 5513   3.844   2.986   5.400
   43DPPC   C26 5514   3.755   3.180   5.367
   43DPPC   H6R 5515   3.732   3.249   5.283
   43DPPC   H6S 5516   3.832   3.228   5.430
   43DPPC   C27 5517   3.628   3.158   5.451
   43DPPC   H7R 5518   3.651   3.081   5.529
   43DPPC   H7S 5519   3.546   3.119   5.388
   43DPPC   C28 5520   3.577   3.285   5.522
   43DPPC   H8R 5521   3.526   3.351   5.448
   43DPPC   H8S 5522   3.665   3.341   5.562
   43DPPC   C29 5523   3.483   3.254   5.639
   43DPPC   H9R 5524   3.453   3.348   5.690
   43DPPC   H9S 5525   3.540   3.193   5.712
   43DPPC  C210 5526   3.356   3.176   5.601
   43DPPC  H10R 5527   3.383   3.091   5.533
   43DPPC  H10S 5528   3.284   3.241   5.547
   43DPPC  C211 5529   3.290   3.114   5.726
   43DPPC  H11R 5530   3.252   3.194   5.793
   43DPPC  H11S 5531   3.371   3.060   5.778
   43DPPC  C212 5532   3.179   3.014   5.694
   43DPPC  H12R 5533   3.219   2.937   5.625
   43DPPC  H12S 5534   3.097   3.066   5.639
   43DPPC  C213 5535   3.118   2.942   5.816
   43DPPC  H13R 5536   3.048   2.866   5.775
   43DPPC  H13S 5537   3.059   3.013   5.876
   43DPPC  C214 5538   3.214   2.865   5.909
   43DPPC  H14R 5539   3.284   2.805   5.848
   43DPPC  H14S 5540   3.151   2.793   5.966
   43DPPC  C215 5541   3.290   2.950   6.013
   43DPPC  H15R 5542   3.224   3.034   6.046
   43DPPC  H15S 5543   3.380   2.995   5.967
   43DPPC  C216 5544   3.334   2.869   6.134
   43DPPC  H16R 5545   3.390   2.778   6.104
   43DPPC  H16S 5546   3.247   2.839   6.195
   43DPPC  H16T 5547   3.399   2.929   6.201
   43DPPC   C33 5548   3.179   2.690   4.986
   43DPPC   H3X 5549   3.287   2.711   4.968
   43DPPC   H3Y 5550   3.160   2.587   4.949
   43DPPC   C34 5551   3.150   2.688   5.137
   43DPPC   H4X 5552   3.206   2.603   5.181
   43DPPC   H4Y 5553   3.042   2.667   5.155
   43DPPC   C35 5554   3.191   2.816   5.211
   43DPPC   H5X 5555   3.102   2.881   5.223
   43DPPC   H5Y 5556   3.266   2.872   5.152
   43DPPC   C36 5557   3.254   2.785   5.346
   43DPPC   H6X 5558   3.192   2.711   5.400
   43DPPC   H6Y 5559   3.256   2.879   5.407
   43DPPC   C37 5560   3.399   2.735   5.332
   43DPPC   H7X 5561   3.461   2.821   5.300
   43DPPC   H7Y 5562   3.405   2.658   5.251
   43DPPC   C38 5563   3.458   2.675   5.460
   43DPPC   H8X 5564   3.569   2.674   5.451
   43DPPC   H8Y 5565   3.425   2.569   5.470
   43DPPC   C39 5566   3.417   2.749   5.588
   43DPPC   H9X 5567   3.307   2.740   5.604
   43DPPC   H9Y 5568   3.441   2.857   5.574
   43DPPC  C310 5569   3.488   2.695   5.712
   43DPPC  H10X 5570   3.570   2.627   5.678
   43DPPC  H10Y 5571   3.419   2.632   5.772
   43DPPC  C311 5572   3.547   2.804   5.802
   43DPPC  H11X 5573   3.505   2.795   5.905
   43DPPC  H11Y 5574   3.521   2.905   5.763
   43DPPC  C312 5575   3.699   2.792   5.811
   43DPPC  H12X 5576   3.743   2.883   5.860
   43DPPC  H12Y 5577   3.737   2.787   5.707
   43DPPC  C313 5578   3.743   2.666   5.887
   43DPPC  H13X 5579   3.840   2.631   5.846
   43DPPC  H13Y 5580   3.669   2.585   5.871
   43DPPC  C314 5581   3.760   2.689   6.037
   43DPPC  H14X 5582   3.663   2.724   6.080
   43DPPC  H14Y 5583   3.835   2.770   6.053
   43DPPC  C315 5584   3.807   2.563   6.110
   43DPPC  H15X 5585   3.871   2.505   6.039
   43DPPC  H15Y 5586   3.720   2.499   6.134
   43DPPC  C316 5587   3.886   2.588   6.237
   43DPPC  H16X 5588   3.836   2.665   6.301
   43DPPC  H16Y 5589   3.896   2.495   6.297
   43DPPC  H16Z 5590   3.988   2.624   6.212
   44DPPC     N 5591   3.914   2.110   4.101
   44DPPC   C13 5592   3.924   2.228   4.009
   44DPPC  H13A 5593   3.974   2.199   3.917
   44DPPC  H13B 5594   3.979   2.309   4.052
   44DPPC  H13C 5595   3.824   2.261   3.982
   44DPPC   C14 5596   3.831   2.008   4.031
   44DPPC  H14A 5597   3.832   1.915   4.088
   44DPPC  H14B 5598   3.866   1.985   3.931
   44DPPC  H14C 5599   3.727   2.036   4.028
   44DPPC   C15 5600   4.048   2.050   4.125
   44DPPC  H15A 5601   4.091   2.009   4.034
   44DPPC  H15B 5602   4.035   1.964   4.194
   44DPPC  H15C 5603   4.117   2.118   4.173
   44DPPC   C12 5604   3.848   2.138   4.235
   44DPPC  H12A 5605   3.741   2.148   4.219
   44DPPC  H12B 5606   3.884   2.230   4.278
   44DPPC   C11 5607   3.864   2.030   4.346
   44DPPC  H11A 5608   3.814   2.065   4.439
   44DPPC  H11B 5609   3.971   2.018   4.374
   44DPPC     P 5610   3.661   1.865   4.302
   44DPPC   O13 5611   3.646   1.721   4.330
   44DPPC   O14 5612   3.596   1.921   4.181
   44DPPC   O11 5613   3.612   1.952   4.426
   44DPPC   O12 5614   3.815   1.904   4.302
   44DPPC    C1 5615   3.557   1.890   4.540
   44DPPC    HA 5616   3.493   1.803   4.512
   44DPPC    HB 5617   3.489   1.963   4.589
   44DPPC    C2 5618   3.659   1.846   4.650
   44DPPC    HS 5619   3.595   1.795   4.726
   44DPPC   O21 5620   3.734   1.958   4.703
   44DPPC   C21 5621   3.696   1.991   4.825
   44DPPC   O22 5622   3.586   1.970   4.872
   44DPPC   C22 5623   3.814   2.056   4.897
   44DPPC   H2R 5624   3.838   2.150   4.843
   44DPPC   H2S 5625   3.900   1.987   4.888
   44DPPC    C3 5626   3.766   1.741   4.613
   44DPPC    HX 5627   3.851   1.791   4.561
   44DPPC    HY 5628   3.726   1.666   4.542
   44DPPC   O31 5629   3.812   1.685   4.738
   44DPPC   C31 5630   3.755   1.570   4.770
   44DPPC   O32 5631   3.707   1.489   4.694
   44DPPC   C32 5632   3.749   1.557   4.921
   44DPPC   H2X 5633   3.851   1.580   4.960
   44DPPC   H2Y 5634   3.726   1.449   4.940
   44DPPC   C23 5635   3.786   2.087   5.046
   44DPPC   H3R 5636   3.770   1.994   5.103
   44DPPC   H3S 5637   3.692   2.147   5.053
   44DPPC   C24 5638   3.899   2.169   5.111
   44DPPC   H4R 5639   3.863   2.210   5.208
   44DPPC   H4S 5640   3.920   2.256   5.045
   44DPPC   C25 5641   4.031   2.093   5.133
   44DPPC   H5R 5642   4.110   2.167   5.158
   44DPPC   H5S 5643   4.061   2.044   5.038
   44DPPC   C26 5644   4.027   1.988   5.245
   44DPPC   H6R 5645   4.123   1.932   5.243
   44DPPC   H6S 5646   3.946   1.914   5.226
   44DPPC   C27 5647   4.010   2.049   5.385
   44DPPC   H7R 5648   3.914   2.104   5.391
   44DPPC   H7S 5649   4.092   2.123   5.401
   44DPPC   C28 5650   4.016   1.947   5.500
   44DPPC   H8R 5651   4.026   2.005   5.595
   44DPPC   H8S 5652   4.107   1.883   5.491
   44DPPC   C29 5653   3.891   1.859   5.511
   44DPPC   H9R 5654   3.904   1.769   5.448
   44DPPC   H9S 5655   3.804   1.912   5.470
   44DPPC  C210 5656   3.859   1.823   5.657
   44DPPC  H10R 5657   3.837   1.917   5.712
   44DPPC  H10S 5658   3.950   1.778   5.702
   44DPPC  C211 5659   3.740   1.727   5.679
   44DPPC  H11R 5660   3.649   1.786   5.700
   44DPPC  H11S 5661   3.722   1.671   5.585
   44DPPC  C212 5662   3.763   1.625   5.792
   44DPPC  H12R 5663   3.842   1.554   5.758
   44DPPC  H12S 5664   3.670   1.565   5.805
   44DPPC  C213 5665   3.807   1.686   5.926
   44DPPC  H13R 5666   3.736   1.765   5.958
   44DPPC  H13S 5667   3.905   1.735   5.908
   44DPPC  C214 5668   3.832   1.584   6.040
   44DPPC  H14R 5669   3.904   1.631   6.110
   44DPPC  H14S 5670   3.884   1.496   5.999
   44DPPC  C215 5671   3.711   1.540   6.126
   44DPPC  H15R 5672   3.722   1.586   6.227
   44DPPC  H15S 5673   3.718   1.429   6.140
   44DPPC  C216 5674   3.571   1.573   6.074
   44DPPC  H16R 5675   3.494   1.542   6.149
   44DPPC  H16S 5676   3.549   1.520   5.979
   44DPPC  H16T 5677   3.560   1.682   6.057
   44DPPC   C33 5678   3.644   1.643   4.996
   44DPPC   H3X 5679   3.578   1.698   4.925
   44DPPC   H3Y 5680   3.698   1.720   5.055
   44DPPC   C34 5681   3.553   1.561   5.090
   44DPPC   H4X 5682   3.608   1.483   5.146
   44DPPC   H4Y 5683   3.477   1.509   5.028
   44DPPC   C35 5684   3.480   1.648   5.194
   44DPPC   H5X 5685   3.395   1.590   5.238
   44DPPC   H5Y 5686   3.437   1.735   5.141
   44DPPC   C36 5687   3.571   1.696   5.308
   44DPPC   H6X 5688   3.653   1.757   5.266
   44DPPC   H6Y 5689   3.616   1.608   5.358
   44DPPC   C37 5690   3.497   1.780   5.414
   44DPPC   H7X 5691   3.573   1.817   5.487
   44DPPC   H7Y 5692   3.426   1.716   5.470
   44DPPC   C38 5693   3.422   1.902   5.358
   44DPPC   H8X 5694   3.313   1.878   5.355
   44DPPC   H8Y 5695   3.453   1.920   5.252
   44DPPC   C39 5696   3.448   2.031   5.435
   44DPPC   H9X 5697   3.449   2.011   5.544
   44DPPC   H9Y 5698   3.365   2.102   5.414
   44DPPC  C310 5699   3.580   2.097   5.389
   44DPPC  H10X 5700   3.574   2.116   5.280
   44DPPC  H10Y 5701   3.662   2.026   5.404
   44DPPC  C311 5702   3.615   2.228   5.460
   44DPPC  H11X 5703   3.528   2.296   5.460
   44DPPC  H11Y 5704   3.697   2.279   5.404
   44DPPC  C312 5705   3.662   2.206   5.604
   44DPPC  H12X 5706   3.759   2.153   5.603
   44DPPC  H12Y 5707   3.589   2.140   5.656
   44DPPC  C313 5708   3.676   2.337   5.684
   44DPPC  H13X 5709   3.579   2.390   5.691
   44DPPC  H13Y 5710   3.745   2.403   5.628
   44DPPC  C314 5711   3.736   2.310   5.822
   44DPPC  H14X 5712   3.789   2.402   5.856
   44DPPC  H14Y 5713   3.815   2.233   5.809
   44DPPC  C315 5714   3.640   2.268   5.936
   44DPPC  H15X 5715   3.640   2.350   6.010
   44DPPC  H15Y 5716   3.683   2.180   5.988
   44DPPC  C316 5717   3.494   2.238   5.901
   44DPPC  H16X 5718   3.437   2.217   5.994
   44DPPC  H16Y 5719   3.486   2.149   5.836
   44DPPC  H16Z 5720   3.447   2.325   5.851
   45DPPC     N 5721   0.777   2.199   4.085
   45DPPC   C13 5722   0.879   2.180   3.978
   45DPPC  H13A 5723   0.830   2.142   3.888
   45DPPC  H13B 5724   0.958   2.111   4.007
   45DPPC  H13C 5725   0.925   2.274   3.949
   45DPPC   C14 5726   0.673   2.295   4.033
   45DPPC  H14A 5727   0.598   2.313   4.111
   45DPPC  H14B 5728   0.621   2.258   3.947
   45DPPC  H14C 5729   0.714   2.393   4.009
   45DPPC   C15 5730   0.709   2.069   4.117
   45DPPC  H15A 5731   0.671   2.022   4.029
   45DPPC  H15B 5732   0.627   2.093   4.186
   45DPPC  H15C 5733   0.776   2.004   4.171
   45DPPC   C12 5734   0.834   2.254   4.216
   45DPPC  H12A 5735   0.837   2.363   4.211
   45DPPC  H12B 5736   0.935   2.220   4.232
   45DPPC   C11 5737   0.753   2.221   4.345
   45DPPC  H11A 5738   0.801   2.271   4.433
   45DPPC  H11B 5739   0.760   2.113   4.368
   45DPPC     P 5740   0.573   2.408   4.361
   45DPPC   O13 5741   0.482   2.453   4.253
   45DPPC   O14 5742   0.697   2.488   4.379
   45DPPC   O11 5743   0.493   2.394   4.495
   45DPPC   O12 5744   0.615   2.256   4.331
   45DPPC    C1 5745   0.506   2.481   4.607
   45DPPC    HA 5746   0.461   2.580   4.582
   45DPPC    HB 5747   0.612   2.497   4.635
   45DPPC    C2 5748   0.426   2.424   4.728
   45DPPC    HS 5749   0.410   2.506   4.801
   45DPPC   O21 5750   0.497   2.316   4.790
   45DPPC   C21 5751   0.601   2.347   4.862
   45DPPC   O22 5752   0.640   2.459   4.891
   45DPPC   C22 5753   0.672   2.216   4.901
   45DPPC   H2R 5754   0.753   2.200   4.827
   45DPPC   H2S 5755   0.598   2.134   4.890
   45DPPC    C3 5756   0.284   2.373   4.685
   45DPPC    HX 5757   0.290   2.333   4.582
   45DPPC    HY 5758   0.215   2.461   4.681
   45DPPC   O31 5759   0.239   2.267   4.771
   45DPPC   C31 5760   0.132   2.286   4.845
   45DPPC   O32 5761   0.056   2.380   4.841
   45DPPC   C32 5762   0.126   2.174   4.950
   45DPPC   H2X 5763   0.152   2.078   4.899
   45DPPC   H2Y 5764   0.023   2.168   4.988
   45DPPC   C23 5765   0.729   2.216   5.044
   45DPPC   H3R 5766   0.649   2.236   5.118
   45DPPC   H3S 5767   0.804   2.298   5.055
   45DPPC   C24 5768   0.796   2.082   5.079
   45DPPC   H4R 5769   0.842   2.089   5.180
   45DPPC   H4S 5770   0.880   2.065   5.007
   45DPPC   C25 5771   0.702   1.960   5.072
   45DPPC   H5R 5772   0.765   1.870   5.092
   45DPPC   H5S 5773   0.662   1.948   4.969
   45DPPC   C26 5774   0.585   1.960   5.172
   45DPPC   H6R 5775   0.521   1.871   5.153
   45DPPC   H6S 5776   0.523   2.051   5.159
   45DPPC   C27 5777   0.638   1.952   5.316
   45DPPC   H7R 5778   0.697   2.042   5.339
   45DPPC   H7S 5779   0.711   1.868   5.318
   45DPPC   C28 5780   0.536   1.926   5.427
   45DPPC   H8R 5781   0.603   1.900   5.512
   45DPPC   H8S 5782   0.470   1.839   5.403
   45DPPC   C29 5783   0.455   2.041   5.486
   45DPPC   H9R 5784   0.355   2.048   5.439
   45DPPC   H9S 5785   0.511   2.134   5.465
   45DPPC  C210 5786   0.443   2.026   5.639
   45DPPC  H10R 5787   0.546   2.011   5.678
   45DPPC  H10S 5788   0.383   1.936   5.663
   45DPPC  C211 5789   0.389   2.149   5.713
   45DPPC  H11R 5790   0.282   2.165   5.691
   45DPPC  H11S 5791   0.444   2.236   5.674
   45DPPC  C212 5792   0.419   2.149   5.864
   45DPPC  H12R 5793   0.506   2.083   5.885
   45DPPC  H12S 5794   0.332   2.110   5.921
   45DPPC  C213 5795   0.461   2.291   5.908
   45DPPC  H13R 5796   0.390   2.366   5.867
   45DPPC  H13S 5797   0.559   2.312   5.860
   45DPPC  C214 5798   0.475   2.309   6.059
   45DPPC  H14R 5799   0.558   2.380   6.081
   45DPPC  H14S 5800   0.503   2.212   6.103
   45DPPC  C215 5801   0.347   2.363   6.125
   45DPPC  H15R 5802   0.354   2.352   6.235
   45DPPC  H15S 5803   0.261   2.301   6.093
   45DPPC  C216 5804   0.319   2.511   6.096
   45DPPC  H16R 5805   0.218   2.539   6.133
   45DPPC  H16S 5806   0.322   2.531   5.987
   45DPPC  H16T 5807   0.395   2.575   6.146
   45DPPC   C33 5808   0.226   2.204   5.064
   45DPPC   H3X 5809   0.325   2.231   5.021
   45DPPC   H3Y 5810   0.242   2.113   5.126
   45DPPC   C34 5811   0.176   2.318   5.155
   45DPPC   H4X 5812   0.102   2.277   5.227
   45DPPC   H4Y 5813   0.123   2.394   5.094
   45DPPC   C35 5814   0.286   2.394   5.231
   45DPPC   H5X 5815   0.235   2.475   5.289
   45DPPC   H5Y 5816   0.355   2.442   5.158
   45DPPC   C36 5817   0.368   2.312   5.331
   45DPPC   H6X 5818   0.432   2.239   5.278
   45DPPC   H6Y 5819   0.294   2.254   5.392
   45DPPC   C37 5820   0.452   2.396   5.430
   45DPPC   H7X 5821   0.482   2.332   5.514
   45DPPC   H7Y 5822   0.389   2.477   5.472
   45DPPC   C38 5823   0.585   2.453   5.376
   45DPPC   H8X 5824   0.577   2.563   5.382
   45DPPC   H8Y 5825   0.601   2.426   5.270
   45DPPC   C39 5826   0.710   2.421   5.461
   45DPPC   H9X 5827   0.683   2.422   5.568
   45DPPC   H9Y 5828   0.786   2.501   5.445
   45DPPC  C310 5829   0.774   2.288   5.420
   45DPPC  H10X 5830   0.805   2.295   5.313
   45DPPC  H10Y 5831   0.695   2.212   5.429
   45DPPC  C311 5832   0.894   2.245   5.505
   45DPPC  H11X 5833   0.966   2.329   5.512
   45DPPC  H11Y 5834   0.946   2.160   5.454
   45DPPC  C312 5835   0.853   2.198   5.645
   45DPPC  H12X 5836   0.808   2.096   5.639
   45DPPC  H12Y 5837   0.774   2.266   5.683
   45DPPC  C313 5838   0.971   2.196   5.743
   45DPPC  H13X 5839   1.031   2.289   5.730
   45DPPC  H13Y 5840   1.035   2.110   5.718
   45DPPC  C314 5841   0.930   2.182   5.891
   45DPPC  H14X 5842   1.023   2.171   5.952
   45DPPC  H14Y 5843   0.871   2.089   5.902
   45DPPC  C315 5844   0.850   2.300   5.948
   45DPPC  H15X 5845   0.801   2.267   6.043
   45DPPC  H15Y 5846   0.768   2.329   5.880
   45DPPC  C316 5847   0.936   2.421   5.980
   45DPPC  H16X 5848   0.872   2.502   6.023
   45DPPC  H16Y 5849   0.985   2.460   5.888
   45DPPC  H16Z 5850   1.015   2.395   6.055
   46DPPC     N 5851   0.685   1.604   4.094
   46DPPC   C13 5852   0.549   1.659   4.069
   46DPPC  H13A 5853   0.517   1.629   3.969
   46DPPC  H13B 5854   0.547   1.767   4.076
   46DPPC  H13C 5855   0.477   1.618   4.139
   46DPPC   C14 5856   0.676   1.454   4.090
   46DPPC  H14A 5857   0.766   1.412   4.137
   46DPPC  H14B 5858   0.675   1.414   3.989
   46DPPC  H14C 5859   0.593   1.416   4.147
   46DPPC   C15 5860   0.776   1.648   3.983
   46DPPC  H15A 5861   0.739   1.617   3.886
   46DPPC  H15B 5862   0.874   1.604   4.000
   46DPPC  H15C 5863   0.787   1.756   3.980
   46DPPC   C12 5864   0.740   1.644   4.231
   46DPPC  H12A 5865   0.675   1.602   4.307
   46DPPC  H12B 5866   0.738   1.751   4.242
   46DPPC   C11 5867   0.883   1.594   4.267
   46DPPC  H11A 5868   0.906   1.631   4.370
   46DPPC  H11B 5869   0.958   1.638   4.198
   46DPPC     P 5870   0.997   1.365   4.335
   46DPPC   O13 5871   1.125   1.403   4.270
   46DPPC   O14 5872   0.950   1.225   4.329
   46DPPC   O11 5873   0.980   1.422   4.484
   46DPPC   O12 5874   0.888   1.452   4.261
   46DPPC    C1 5875   0.850   1.410   4.544
   46DPPC    HA 5876   0.810   1.306   4.537
   46DPPC    HB 5877   0.777   1.477   4.493
   46DPPC    C2 5878   0.850   1.448   4.696
   46DPPC    HS 5879   0.934   1.517   4.714
   46DPPC   O21 5880   0.866   1.325   4.767
   46DPPC   C21 5881   0.909   1.326   4.891
   46DPPC   O22 5882   0.941   1.423   4.957
   46DPPC   C22 5883   0.908   1.180   4.938
   46DPPC   H2R 5884   1.012   1.151   4.957
   46DPPC   H2S 5885   0.868   1.117   4.855
   46DPPC    C3 5886   0.716   1.521   4.731
   46DPPC    HX 5887   0.630   1.452   4.711
   46DPPC    HY 5888   0.707   1.605   4.659
   46DPPC   O31 5889   0.712   1.578   4.864
   46DPPC   C31 5890   0.653   1.504   4.957
   46DPPC   O32 5891   0.601   1.395   4.939
   46DPPC   C32 5892   0.659   1.577   5.093
   46DPPC   H2X 5893   0.559   1.619   5.112
   46DPPC   H2Y 5894   0.732   1.660   5.084
   46DPPC   C23 5895   0.824   1.156   5.065
   46DPPC   H3R 5896   0.791   1.049   5.066
   46DPPC   H3S 5897   0.733   1.218   5.067
   46DPPC   C24 5898   0.910   1.180   5.189
   46DPPC   H4R 5899   0.955   1.282   5.183
   46DPPC   H4S 5900   0.995   1.107   5.188
   46DPPC   C25 5901   0.835   1.166   5.321
   46DPPC   H5R 5902   0.791   1.065   5.330
   46DPPC   H5S 5903   0.753   1.240   5.324
   46DPPC   C26 5904   0.933   1.192   5.437
   46DPPC   H6R 5905   0.973   1.295   5.428
   46DPPC   H6S 5906   1.018   1.121   5.426
   46DPPC   C27 5907   0.874   1.172   5.577
   46DPPC   H7R 5908   0.954   1.190   5.652
   46DPPC   H7S 5909   0.843   1.066   5.587
   46DPPC   C28 5910   0.756   1.265   5.609
   46DPPC   H8R 5911   0.678   1.255   5.530
   46DPPC   H8S 5912   0.791   1.370   5.607
   46DPPC   C29 5913   0.689   1.234   5.744
   46DPPC   H9R 5914   0.669   1.125   5.746
   46DPPC   H9S 5915   0.589   1.281   5.752
   46DPPC  C210 5916   0.774   1.271   5.866
   46DPPC  H10R 5917   0.731   1.361   5.917
   46DPPC  H10S 5918   0.877   1.296   5.834
   46DPPC  C211 5919   0.779   1.153   5.963
   46DPPC  H11R 5920   0.819   1.066   5.906
   46DPPC  H11S 5921   0.675   1.131   5.997
   46DPPC  C212 5922   0.866   1.170   6.087
   46DPPC  H12R 5923   0.943   1.247   6.067
   46DPPC  H12S 5924   0.918   1.074   6.107
   46DPPC  C213 5925   0.782   1.208   6.209
   46DPPC  H13R 5926   0.694   1.141   6.217
   46DPPC  H13S 5927   0.746   1.312   6.195
   46DPPC  C214 5928   0.864   1.200   6.339
   46DPPC  H14R 5929   0.894   1.095   6.359
   46DPPC  H14S 5930   0.799   1.232   6.423
   46DPPC  C215 5931   0.985   1.292   6.327
   46DPPC  H15R 5932   0.949   1.384   6.278
   46DPPC  H15S 5933   1.059   1.247   6.258
   46DPPC  C216 5934   1.055   1.330   6.458
   46DPPC  H16R 5935   1.093   1.434   6.454
   46DPPC  H16S 5936   1.142   1.265   6.477
   46DPPC  H16T 5937   0.987   1.318   6.543
   46DPPC   C33 5938   0.700   1.484   5.210
   46DPPC   H3X 5939   0.805   1.451   5.191
   46DPPC   H3Y 5940   0.636   1.394   5.213
   46DPPC   C34 5941   0.697   1.552   5.349
   46DPPC   H4X 5942   0.729   1.658   5.337
   46DPPC   H4Y 5943   0.772   1.503   5.415
   46DPPC   C35 5944   0.561   1.547   5.420
   46DPPC   H5X 5945   0.534   1.442   5.444
   46DPPC   H5Y 5946   0.484   1.587   5.350
   46DPPC   C36 5947   0.558   1.633   5.548
   46DPPC   H6X 5948   0.455   1.674   5.563
   46DPPC   H6Y 5949   0.630   1.714   5.533
   46DPPC   C37 5950   0.603   1.562   5.675
   46DPPC   H7X 5951   0.714   1.557   5.677
   46DPPC   H7Y 5952   0.564   1.459   5.667
   46DPPC   C38 5953   0.554   1.617   5.810
   46DPPC   H8X 5954   0.610   1.558   5.886
   46DPPC   H8Y 5955   0.446   1.592   5.817
   46DPPC   C39 5956   0.568   1.764   5.851
   46DPPC   H9X 5957   0.556   1.771   5.961
   46DPPC   H9Y 5958   0.483   1.821   5.807
   46DPPC  C310 5959   0.699   1.831   5.812
   46DPPC  H10X 5960   0.695   1.940   5.836
   46DPPC  H10Y 5961   0.713   1.822   5.702
   46DPPC  C311 5962   0.822   1.772   5.883
   46DPPC  H11X 5963   0.812   1.662   5.895
   46DPPC  H11Y 5964   0.829   1.815   5.985
   46DPPC  C312 5965   0.948   1.805   5.803
   46DPPC  H12X 5966   1.033   1.814   5.873
   46DPPC  H12Y 5967   0.935   1.906   5.757
   46DPPC  C313 5968   0.981   1.704   5.691
   46DPPC  H13X 5969   1.070   1.739   5.636
   46DPPC  H13Y 5970   0.896   1.701   5.620
   46DPPC  C314 5971   1.008   1.560   5.739
   46DPPC  H14X 5972   1.036   1.496   5.653
   46DPPC  H14Y 5973   0.913   1.518   5.778
   46DPPC  C315 5974   1.114   1.548   5.849
   46DPPC  H15X 5975   1.141   1.648   5.888
   46DPPC  H15Y 5976   1.208   1.506   5.807
   46DPPC  C316 5977   1.069   1.464   5.968
   46DPPC  H16X 5978   0.963   1.487   5.994
   46DPPC  H16Y 5979   1.132   1.485   6.057
   46DPPC  H16Z 5980   1.076   1.356   5.943
   47DPPC     N 5981   2.740   4.020   4.156
   47DPPC   C13 5982   2.608   4.030   4.085
   47DPPC  H13A 5983   2.620   4.056   3.981
   47DPPC  H13B 5984   2.543   4.105   4.131
   47DPPC  H13C 5985   2.556   3.936   4.090
   47DPPC   C14 5986   2.825   3.920   4.087
   47DPPC  H14A 5987   2.910   3.895   4.149
   47DPPC  H14B 5988   2.855   3.954   3.989
   47DPPC  H14C 5989   2.766   3.828   4.077
   47DPPC   C15 5990   2.808   4.152   4.146
   47DPPC  H15A 5991   2.912   4.149   4.173
   47DPPC  H15B 5992   2.757   4.225   4.209
   47DPPC  H15C 5993   2.799   4.188   4.043
   47DPPC   C12 5994   2.720   3.972   4.299
   47DPPC  H12A 5995   2.664   4.047   4.354
   47DPPC  H12B 5996   2.818   3.965   4.347
   47DPPC   C11 5997   2.650   3.834   4.322
   47DPPC  H11A 5998   2.543   3.844   4.292
   47DPPC  H11B 5999   2.649   3.813   4.431
   47DPPC     P 6000   2.771   3.599   4.313
   47DPPC   O13 6001   2.845   3.525   4.206
   47DPPC   O14 6002   2.669   3.531   4.395
   47DPPC   O11 6003   2.874   3.676   4.407
   47DPPC   O12 6004   2.707   3.727   4.246
   47DPPC    C1 6005   3.013   3.675   4.373
   47DPPC    HA 6006   3.029   3.720   4.273
   47DPPC    HB 6007   3.049   3.569   4.371
   47DPPC    C2 6008   3.099   3.751   4.479
   47DPPC    HS 6009   3.205   3.718   4.466
   47DPPC   O21 6010   3.053   3.723   4.612
   47DPPC   C21 6011   3.068   3.593   4.644
   47DPPC   O22 6012   3.151   3.520   4.592
   47DPPC   C22 6013   2.970   3.555   4.754
   47DPPC   H2R 6014   2.869   3.585   4.718
   47DPPC   H2S 6015   2.993   3.613   4.845
   47DPPC    C3 6016   3.100   3.905   4.454
   47DPPC    HX 6017   3.120   3.920   4.346
   47DPPC    HY 6018   3.187   3.949   4.508
   47DPPC   O31 6019   2.975   3.971   4.486
   47DPPC   C31 6020   2.967   4.016   4.612
   47DPPC   O32 6021   3.060   4.024   4.690
   47DPPC   C32 6022   2.822   4.052   4.644
   47DPPC   H2X 6023   2.755   4.000   4.573
   47DPPC   H2Y 6024   2.812   4.162   4.629
   47DPPC   C23 6025   2.968   3.403   4.783
   47DPPC   H3R 6026   2.952   3.348   4.687
   47DPPC   H3S 6027   2.879   3.381   4.846
   47DPPC   C24 6028   3.093   3.347   4.854
   47DPPC   H4R 6029   3.180   3.355   4.785
   47DPPC   H4S 6030   3.076   3.238   4.872
   47DPPC   C25 6031   3.129   3.412   4.988
   47DPPC   H5R 6032   3.147   3.521   4.974
   47DPPC   H5S 6033   3.225   3.367   5.023
   47DPPC   C26 6034   3.023   3.389   5.096
   47DPPC   H6R 6035   3.012   3.279   5.107
   47DPPC   H6S 6036   2.925   3.429   5.064
   47DPPC   C27 6037   3.060   3.446   5.234
   47DPPC   H7R 6038   3.170   3.440   5.251
   47DPPC   H7S 6039   3.012   3.380   5.309
   47DPPC   C28 6040   3.008   3.588   5.261
   47DPPC   H8R 6041   2.994   3.595   5.371
   47DPPC   H8S 6042   2.907   3.602   5.215
   47DPPC   C29 6043   3.100   3.703   5.218
   47DPPC   H9R 6044   3.104   3.709   5.107
   47DPPC   H9S 6045   3.204   3.680   5.253
   47DPPC  C210 6046   3.058   3.839   5.276
   47DPPC  H10R 6047   2.957   3.867   5.237
   47DPPC  H10S 6048   3.130   3.916   5.240
   47DPPC  C211 6049   3.056   3.841   5.430
   47DPPC  H11R 6050   3.148   3.789   5.466
   47DPPC  H11S 6051   2.968   3.784   5.467
   47DPPC  C212 6052   3.055   3.982   5.492
   47DPPC  H12R 6053   2.956   4.029   5.480
   47DPPC  H12S 6054   3.127   4.044   5.434
   47DPPC  C213 6055   3.099   3.983   5.640
   47DPPC  H13R 6056   3.093   4.087   5.680
   47DPPC  H13S 6057   3.206   3.953   5.643
   47DPPC  C214 6058   3.023   3.889   5.734
   47DPPC  H14R 6059   3.012   3.789   5.686
   47DPPC  H14S 6060   2.922   3.928   5.755
   47DPPC  C215 6061   3.099   3.867   5.866
   47DPPC  H15R 6062   3.108   3.965   5.920
   47DPPC  H15S 6063   3.202   3.832   5.843
   47DPPC  C216 6064   3.032   3.764   5.957
   47DPPC  H16R 6065   2.936   3.805   5.997
   47DPPC  H16S 6066   3.098   3.739   6.042
   47DPPC  H16T 6067   3.009   3.671   5.902
   47DPPC   C33 6068   2.783   4.013   4.788
   47DPPC   H3X 6069   2.685   4.064   4.809
   47DPPC   H3Y 6070   2.855   4.052   4.863
   47DPPC   C34 6071   2.763   3.862   4.807
   47DPPC   H4X 6072   2.854   3.817   4.854
   47DPPC   H4Y 6073   2.750   3.814   4.707
   47DPPC   C35 6074   2.638   3.827   4.891
   47DPPC   H5X 6075   2.620   3.718   4.887
   47DPPC   H5Y 6076   2.551   3.878   4.843
   47DPPC   C36 6077   2.648   3.872   5.038
   47DPPC   H6X 6078   2.690   3.975   5.042
   47DPPC   H6Y 6079   2.718   3.805   5.093
   47DPPC   C37 6080   2.511   3.875   5.108
   47DPPC   H7X 6081   2.474   3.771   5.122
   47DPPC   H7Y 6082   2.439   3.927   5.040
   47DPPC   C38 6083   2.509   3.950   5.242
   47DPPC   H8X 6084   2.404   3.952   5.280
   47DPPC   H8Y 6085   2.542   4.055   5.226
   47DPPC   C39 6086   2.599   3.886   5.349
   47DPPC   H9X 6087   2.705   3.891   5.317
   47DPPC   H9Y 6088   2.571   3.779   5.358
   47DPPC  C310 6089   2.585   3.951   5.487
   47DPPC  H10X 6090   2.483   3.933   5.528
   47DPPC  H10Y 6091   2.597   4.061   5.474
   47DPPC  C311 6092   2.691   3.904   5.588
   47DPPC  H11X 6093   2.682   3.961   5.682
   47DPPC  H11Y 6094   2.790   3.929   5.545
   47DPPC  C312 6095   2.690   3.754   5.621
   47DPPC  H12X 6096   2.783   3.731   5.679
   47DPPC  H12Y 6097   2.697   3.696   5.527
   47DPPC  C313 6098   2.570   3.708   5.705
   47DPPC  H13X 6099   2.580   3.599   5.723
   47DPPC  H13Y 6100   2.475   3.725   5.648
   47DPPC  C314 6101   2.563   3.778   5.841
   47DPPC  H14X 6102   2.531   3.884   5.829
   47DPPC  H14Y 6103   2.665   3.778   5.887
   47DPPC  C315 6104   2.467   3.708   5.938
   47DPPC  H15X 6105   2.499   3.602   5.946
   47DPPC  H15Y 6106   2.364   3.708   5.896
   47DPPC  C316 6107   2.466   3.772   6.077
   47DPPC  H16X 6108   2.412   3.707   6.150
   47DPPC  H16Y 6109   2.416   3.871   6.074
   47DPPC  H16Z 6110   2.570   3.786   6.114
   48DPPC     N 6111   1.192   3.642   4.117
   48DPPC   C13 6112   1.275   3.714   4.017
   48DPPC  H13A 6113   1.376   3.672   4.009
   48DPPC  H13B 6114   1.285   3.819   4.037
   48DPPC  H13C 6115   1.232   3.701   3.918
   48DPPC   C14 6116   1.051   3.691   4.113
   48DPPC  H14A 6117   1.046   3.796   4.137
   48DPPC  H14B 6118   0.994   3.637   4.190
   48DPPC  H14C 6119   1.005   3.674   4.017
   48DPPC   C15 6120   1.195   3.498   4.076
   48DPPC  H15A 6121   1.297   3.465   4.064
   48DPPC  H15B 6122   1.138   3.480   3.987
   48DPPC  H15C 6123   1.154   3.438   4.158
   48DPPC   C12 6124   1.245   3.651   4.258
   48DPPC  H12A 6125   1.294   3.745   4.274
   48DPPC  H12B 6126   1.321   3.573   4.272
   48DPPC   C11 6127   1.144   3.630   4.373
   48DPPC  H11A 6128   1.077   3.719   4.381
   48DPPC  H11B 6129   1.202   3.627   4.469
   48DPPC     P 6130   1.115   3.374   4.410
   48DPPC   O13 6131   1.176   3.387   4.542
   48DPPC   O14 6132   1.190   3.310   4.300
   48DPPC   O11 6133   0.985   3.285   4.421
   48DPPC   O12 6134   1.064   3.513   4.353
   48DPPC    C1 6135   0.860   3.334   4.375
   48DPPC    HA 6136   0.810   3.249   4.328
   48DPPC    HB 6137   0.870   3.409   4.292
   48DPPC    C2 6138   0.773   3.402   4.484
   48DPPC    HS 6139   0.676   3.428   4.435
   48DPPC   O21 6140   0.844   3.521   4.521
   48DPPC   C21 6141   0.765   3.616   4.564
   48DPPC   O22 6142   0.645   3.605   4.580
   48DPPC   C22 6143   0.851   3.740   4.588
   48DPPC   H2R 6144   0.788   3.814   4.640
   48DPPC   H2S 6145   0.880   3.781   4.489
   48DPPC    C3 6146   0.740   3.318   4.612
   48DPPC    HX 6147   0.668   3.239   4.585
   48DPPC    HY 6148   0.684   3.382   4.684
   48DPPC   O31 6149   0.856   3.254   4.670
   48DPPC   C31 6150   0.916   3.325   4.766
   48DPPC   O32 6151   0.870   3.426   4.816
   48DPPC   C32 6152   1.043   3.253   4.811
   48DPPC   H2X 6153   1.091   3.205   4.722
   48DPPC   H2Y 6154   1.015   3.174   4.882
   48DPPC   C23 6155   0.975   3.708   4.674
   48DPPC   H3R 6156   1.049   3.650   4.615
   48DPPC   H3S 6157   0.946   3.641   4.758
   48DPPC   C24 6158   1.043   3.831   4.737
   48DPPC   H4R 6159   1.068   3.905   4.658
   48DPPC   H4S 6160   1.138   3.798   4.785
   48DPPC   C25 6161   0.956   3.898   4.845
   48DPPC   H5R 6162   0.863   3.937   4.798
   48DPPC   H5S 6163   1.011   3.986   4.887
   48DPPC   C26 6164   0.916   3.807   4.962
   48DPPC   H6R 6165   0.855   3.721   4.927
   48DPPC   H6S 6166   0.850   3.866   5.030
   48DPPC   C27 6167   1.036   3.756   5.043
   48DPPC   H7R 6168   1.102   3.843   5.065
   48DPPC   H7S 6169   1.094   3.682   4.984
   48DPPC   C28 6170   0.993   3.693   5.176
   48DPPC   H8R 6171   0.942   3.596   5.155
   48DPPC   H8S 6172   0.918   3.759   5.225
   48DPPC   C29 6173   1.111   3.671   5.271
   48DPPC   H9R 6174   1.160   3.768   5.294
   48DPPC   H9S 6175   1.185   3.606   5.219
   48DPPC  C210 6176   1.070   3.602   5.402
   48DPPC  H10R 6177   1.161   3.562   5.452
   48DPPC  H10S 6178   1.004   3.516   5.377
   48DPPC  C211 6179   0.997   3.694   5.502
   48DPPC  H11R 6180   0.914   3.747   5.451
   48DPPC  H11S 6181   1.069   3.770   5.538
   48DPPC  C212 6182   0.939   3.613   5.619
   48DPPC  H12R 6183   1.015   3.541   5.656
   48DPPC  H12S 6184   0.854   3.553   5.580
   48DPPC  C213 6185   0.889   3.700   5.736
   48DPPC  H13R 6186   0.836   3.633   5.808
   48DPPC  H13S 6187   0.815   3.773   5.697
   48DPPC  C214 6188   0.999   3.776   5.812
   48DPPC  H14R 6189   0.952   3.830   5.897
   48DPPC  H14S 6190   1.043   3.854   5.745
   48DPPC  C215 6191   1.113   3.688   5.867
   48DPPC  H15R 6192   1.186   3.755   5.919
   48DPPC  H15S 6193   1.168   3.642   5.781
   48DPPC  C216 6194   1.068   3.578   5.963
   48DPPC  H16R 6195   1.155   3.521   6.001
   48DPPC  H16S 6196   0.999   3.507   5.913
   48DPPC  H16T 6197   1.015   3.622   6.050
   48DPPC   C33 6198   1.145   3.351   4.875
   48DPPC   H3X 6199   1.094   3.415   4.950
   48DPPC   H3Y 6200   1.181   3.419   4.794
   48DPPC   C34 6201   1.267   3.284   4.939
   48DPPC   H4X 6202   1.339   3.365   4.966
   48DPPC   H4Y 6203   1.318   3.220   4.863
   48DPPC   C35 6204   1.238   3.201   5.066
   48DPPC   H5X 6205   1.335   3.177   5.116
   48DPPC   H5Y 6206   1.191   3.105   5.035
   48DPPC   C36 6207   1.144   3.271   5.166
   48DPPC   H6X 6208   1.042   3.275   5.121
   48DPPC   H6Y 6209   1.178   3.376   5.182
   48DPPC   C37 6210   1.137   3.200   5.301
   48DPPC   H7X 6211   1.221   3.236   5.364
   48DPPC   H7Y 6212   1.149   3.090   5.287
   48DPPC   C38 6213   1.003   3.222   5.373
   48DPPC   H8X 6214   0.931   3.144   5.339
   48DPPC   H8Y 6215   0.960   3.320   5.345
   48DPPC   C39 6216   1.015   3.214   5.526
   48DPPC   H9X 6217   1.084   3.294   5.561
   48DPPC   H9Y 6218   1.058   3.116   5.554
   48DPPC  C310 6219   0.879   3.233   5.596
   48DPPC  H10X 6220   0.810   3.152   5.566
   48DPPC  H10Y 6221   0.834   3.329   5.563
   48DPPC  C311 6222   0.891   3.236   5.749
   48DPPC  H11X 6223   0.794   3.269   5.792
   48DPPC  H11Y 6224   0.969   3.309   5.780
   48DPPC  C312 6225   0.923   3.097   5.807
   48DPPC  H12X 6226   1.018   3.058   5.766
   48DPPC  H12Y 6227   0.843   3.029   5.772
   48DPPC  C313 6228   0.920   3.090   5.960
   48DPPC  H13X 6229   0.903   2.983   5.988
   48DPPC  H13Y 6230   0.834   3.147   5.999
   48DPPC  C314 6231   1.050   3.135   6.028
   48DPPC  H14X 6232   1.036   3.111   6.136
   48DPPC  H14Y 6233   1.062   3.245   6.018
   48DPPC  C315 6234   1.177   3.064   5.978
   48DPPC  H15X 6235   1.197   3.096   5.874
   48DPPC  H15Y 6236   1.159   2.955   5.974
   48DPPC  C316 6237   1.301   3.087   6.064
   48DPPC  H16X 6238   1.325   3.195   6.070
   48DPPC  H16Y 6239   1.389   3.034   6.020
   48DPPC  H16Z 6240   1.286   3.047   6.166
   49DPPC     N 6241   1.948   4.285   4.096
   49DPPC   C13 6242   1.916   4.357   3.969
   49DPPC  H13A 6243   1.910   4.288   3.885
   49DPPC  H13B 6244   1.994   4.430   3.946
   49DPPC  H13C 6245   1.824   4.415   3.979
   49DPPC   C14 6246   2.086   4.230   4.082
   49DPPC  H14A 6247   2.113   4.178   4.174
   49DPPC  H14B 6248   2.162   4.305   4.062
   49DPPC  H14C 6249   2.085   4.154   4.005
   49DPPC   C15 6250   1.939   4.380   4.211
   49DPPC  H15A 6251   1.949   4.326   4.305
   49DPPC  H15B 6252   1.845   4.434   4.211
   49DPPC  H15C 6253   2.017   4.454   4.203
   49DPPC   C12 6254   1.852   4.169   4.116
   49DPPC  H12A 6255   1.863   4.104   4.030
   49DPPC  H12B 6256   1.750   4.206   4.115
   49DPPC   C11 6257   1.874   4.080   4.241
   49DPPC  H11A 6258   1.788   4.008   4.244
   49DPPC  H11B 6259   1.869   4.141   4.334
   49DPPC     P 6260   2.009   3.859   4.279
   49DPPC   O13 6261   2.147   3.825   4.319
   49DPPC   O14 6262   1.946   3.776   4.173
   49DPPC   O11 6263   1.922   3.864   4.412
   49DPPC   O12 6264   2.001   4.012   4.234
   49DPPC    C1 6265   1.984   3.910   4.533
   49DPPC    HA 6266   2.051   3.997   4.516
   49DPPC    HB 6267   2.046   3.828   4.576
   49DPPC    C2 6268   1.876   3.951   4.637
   49DPPC    HS 6269   1.882   4.060   4.656
   49DPPC   O21 6270   1.891   3.874   4.759
   49DPPC   C21 6271   1.970   3.929   4.849
   49DPPC   O22 6272   2.030   4.035   4.834
   49DPPC   C22 6273   1.978   3.841   4.973
   49DPPC   H2R 6274   2.029   3.895   5.055
   49DPPC   H2S 6275   2.042   3.755   4.945
   49DPPC    C3 6276   1.735   3.923   4.579
   49DPPC    HX 6277   1.739   3.820   4.539
   49DPPC    HY 6278   1.718   3.993   4.494
   49DPPC   O31 6279   1.634   3.927   4.680
   49DPPC   C31 6280   1.538   4.014   4.670
   49DPPC   O32 6281   1.514   4.086   4.573
   49DPPC   C32 6282   1.459   4.010   4.799
   49DPPC   H2X 6283   1.438   3.903   4.823
   49DPPC   H2Y 6284   1.362   4.060   4.786
   49DPPC   C23 6285   1.840   3.788   5.019
   49DPPC   H3R 6286   1.861   3.692   5.070
   49DPPC   H3S 6287   1.776   3.765   4.931
   49DPPC   C24 6288   1.759   3.873   5.119
   49DPPC   H4R 6289   1.759   3.979   5.088
   49DPPC   H4S 6290   1.809   3.868   5.218
   49DPPC   C25 6291   1.613   3.822   5.131
   49DPPC   H5R 6292   1.615   3.718   5.165
   49DPPC   H5S 6293   1.566   3.821   5.030
   49DPPC   C26 6294   1.522   3.897   5.229
   49DPPC   H6R 6295   1.432   3.833   5.247
   49DPPC   H6S 6296   1.485   3.992   5.187
   49DPPC   C27 6297   1.586   3.930   5.363
   49DPPC   H7R 6298   1.667   4.005   5.347
   49DPPC   H7S 6299   1.632   3.840   5.408
   49DPPC   C28 6300   1.484   3.991   5.460
   49DPPC   H8R 6301   1.403   3.917   5.483
   49DPPC   H8S 6302   1.437   4.079   5.411
   49DPPC   C29 6303   1.552   4.036   5.589
   49DPPC   H9R 6304   1.642   4.094   5.558
   49DPPC   H9S 6305   1.587   3.947   5.646
   49DPPC  C210 6306   1.464   4.125   5.678
   49DPPC  H10R 6307   1.369   4.073   5.701
   49DPPC  H10S 6308   1.439   4.217   5.622
   49DPPC  C211 6309   1.535   4.164   5.809
   49DPPC  H11R 6310   1.537   4.076   5.877
   49DPPC  H11S 6311   1.475   4.243   5.860
   49DPPC  C212 6312   1.679   4.213   5.787
   49DPPC  H12R 6313   1.676   4.294   5.710
   49DPPC  H12S 6314   1.741   4.130   5.746
   49DPPC  C213 6315   1.749   4.265   5.913
   49DPPC  H13R 6316   1.689   4.349   5.955
   49DPPC  H13S 6317   1.848   4.307   5.883
   49DPPC  C214 6318   1.771   4.157   6.019
   49DPPC  H14R 6319   1.880   4.148   6.040
   49DPPC  H14S 6320   1.739   4.059   5.979
   49DPPC  C215 6321   1.697   4.188   6.150
   49DPPC  H15R 6322   1.588   4.194   6.132
   49DPPC  H15S 6323   1.732   4.289   6.183
   49DPPC  C216 6324   1.725   4.093   6.266
   49DPPC  H16R 6325   1.656   4.006   6.264
   49DPPC  H16S 6326   1.712   4.144   6.364
   49DPPC  H16T 6327   1.829   4.054   6.260
   49DPPC   C33 6328   1.543   4.071   4.913
   49DPPC   H3X 6329   1.635   4.010   4.925
   49DPPC   H3Y 6330   1.482   4.062   5.005
   49DPPC   C34 6331   1.583   4.219   4.900
   49DPPC   H4X 6332   1.492   4.280   4.890
   49DPPC   H4Y 6333   1.647   4.236   4.811
   49DPPC   C35 6334   1.657   4.271   5.026
   49DPPC   H5X 6335   1.614   4.219   5.115
   49DPPC   H5Y 6336   1.637   4.380   5.037
   49DPPC   C36 6337   1.808   4.248   5.019
   49DPPC   H6X 6338   1.854   4.320   4.947
   49DPPC   H6Y 6339   1.825   4.147   4.977
   49DPPC   C37 6340   1.880   4.257   5.155
   49DPPC   H7X 6341   1.814   4.219   5.236
   49DPPC   H7Y 6342   1.904   4.363   5.177
   49DPPC   C38 6343   2.008   4.171   5.154
   49DPPC   H8X 6344   2.056   4.179   5.054
   49DPPC   H8Y 6345   1.977   4.065   5.163
   49DPPC   C39 6346   2.112   4.207   5.261
   49DPPC   H9X 6347   2.132   4.316   5.257
   49DPPC   H9Y 6348   2.207   4.154   5.237
   49DPPC  C310 6349   2.072   4.170   5.404
   49DPPC  H10X 6350   1.978   4.223   5.431
   49DPPC  H10Y 6351   2.151   4.204   5.474
   49DPPC  C311 6352   2.051   4.019   5.423
   49DPPC  H11X 6353   2.146   3.965   5.403
   49DPPC  H11Y 6354   1.975   3.982   5.350
   49DPPC  C312 6355   2.000   3.986   5.562
   49DPPC  H12X 6356   1.907   4.044   5.582
   49DPPC  H12Y 6357   2.076   4.016   5.637
   49DPPC  C313 6358   1.968   3.837   5.578
   49DPPC  H13X 6359   2.061   3.779   5.559
   49DPPC  H13Y 6360   1.892   3.805   5.504
   49DPPC  C314 6361   1.917   3.808   5.720
   49DPPC  H14X 6362   1.806   3.799   5.719
   49DPPC  H14Y 6363   1.942   3.895   5.785
   49DPPC  C315 6364   1.980   3.684   5.782
   49DPPC  H15X 6365   2.091   3.687   5.768
   49DPPC  H15Y 6366   1.942   3.594   5.729
   49DPPC  C316 6367   1.949   3.675   5.931
   49DPPC  H16X 6368   1.974   3.575   5.970
   49DPPC  H16Y 6369   1.840   3.693   5.948
   49DPPC  H16Z 6370   2.005   3.752   5.988
   50DPPC     N 6371   2.032   0.431   4.117
   50DPPC   C13 6372   2.049   0.450   3.970
   50DPPC  H13A 6373   1.979   0.385   3.918
   50DPPC  H13B 6374   2.149   0.426   3.938
   50DPPC  H13C 6375   2.023   0.551   3.939
   50DPPC   C14 6376   2.013   0.285   4.141
   50DPPC  H14A 6377   1.930   0.248   4.081
   50DPPC  H14B 6378   1.986   0.267   4.246
   50DPPC  H14C 6379   2.103   0.229   4.121
   50DPPC   C15 6380   2.151   0.479   4.192
   50DPPC  H15A 6381   2.241   0.430   4.156
   50DPPC  H15B 6382   2.140   0.459   4.298
   50DPPC  H15C 6383   2.166   0.586   4.178
   50DPPC   C12 6384   1.911   0.509   4.166
   50DPPC  H12A 6385   1.929   0.615   4.158
   50DPPC  H12B 6386   1.903   0.488   4.273
   50DPPC   C11 6387   1.771   0.473   4.110
   50DPPC  H11A 6388   1.773   0.469   3.999
   50DPPC  H11B 6389   1.698   0.554   4.134
   50DPPC     P 6390   1.710   0.334   4.322
   50DPPC   O13 6391   1.846   0.308   4.375
   50DPPC   O14 6392   1.608   0.230   4.347
   50DPPC   O11 6393   1.664   0.480   4.364
   50DPPC   O12 6394   1.724   0.350   4.164
   50DPPC    C1 6395   1.743   0.559   4.454
   50DPPC    HA 6396   1.718   0.667   4.436
   50DPPC    HB 6397   1.853   0.550   4.438
   50DPPC    C2 6398   1.707   0.526   4.600
   50DPPC    HS 6399   1.751   0.605   4.665
   50DPPC   O21 6400   1.752   0.397   4.640
   50DPPC   C21 6401   1.881   0.384   4.659
   50DPPC   O22 6402   1.964   0.474   4.654
   50DPPC   C22 6403   1.909   0.241   4.706
   50DPPC   H2R 6404   2.011   0.240   4.748
   50DPPC   H2S 6405   1.906   0.177   4.615
   50DPPC    C3 6406   1.553   0.526   4.615
   50DPPC    HX 6407   1.513   0.446   4.549
   50DPPC    HY 6408   1.517   0.624   4.576
   50DPPC   O31 6409   1.508   0.497   4.750
   50DPPC   C31 6410   1.534   0.597   4.832
   50DPPC   O32 6411   1.579   0.705   4.801
   50DPPC   C32 6412   1.504   0.559   4.976
   50DPPC   H2X 6413   1.532   0.454   4.993
   50DPPC   H2Y 6414   1.397   0.573   4.997
   50DPPC   C23 6415   1.805   0.192   4.810
   50DPPC   H3R 6416   1.835   0.092   4.847
   50DPPC   H3S 6417   1.706   0.181   4.760
   50DPPC   C24 6418   1.786   0.287   4.930
   50DPPC   H4R 6419   1.715   0.241   5.002
   50DPPC   H4S 6420   1.739   0.382   4.894
   50DPPC   C25 6421   1.917   0.324   5.001
   50DPPC   H5R 6422   1.983   0.379   4.930
   50DPPC   H5S 6423   1.969   0.232   5.035
   50DPPC   C26 6424   1.892   0.413   5.122
   50DPPC   H6R 6425   1.810   0.484   5.096
   50DPPC   H6S 6426   1.982   0.474   5.143
   50DPPC   C27 6427   1.857   0.333   5.248
   50DPPC   H7R 6428   1.809   0.237   5.221
   50DPPC   H7S 6429   1.785   0.391   5.311
   50DPPC   C28 6430   1.983   0.308   5.332
   50DPPC   H8R 6431   2.003   0.402   5.389
   50DPPC   H8S 6432   2.066   0.292   5.263
   50DPPC   C29 6433   1.978   0.188   5.427
   50DPPC   H9R 6434   2.061   0.193   5.500
   50DPPC   H9S 6435   1.991   0.094   5.369
   50DPPC  C210 6436   1.846   0.182   5.502
   50DPPC  H10R 6437   1.781   0.107   5.452
   50DPPC  H10S 6438   1.800   0.282   5.492
   50DPPC  C211 6439   1.858   0.153   5.653
   50DPPC  H11R 6440   1.911   0.238   5.701
   50DPPC  H11S 6441   1.920   0.062   5.669
   50DPPC  C212 6442   1.720   0.135   5.718
   50DPPC  H12R 6443   1.724   0.169   5.824
   50DPPC  H12S 6444   1.695   0.027   5.719
   50DPPC  C213 6445   1.606   0.209   5.645
   50DPPC  H13R 6446   1.509   0.171   5.681
   50DPPC  H13S 6447   1.604   0.189   5.537
   50DPPC  C214 6448   1.613   0.360   5.669
   50DPPC  H14R 6449   1.711   0.400   5.634
   50DPPC  H14S 6450   1.610   0.376   5.778
   50DPPC  C215 6451   1.503   0.440   5.600
   50DPPC  H15R 6452   1.404   0.413   5.644
   50DPPC  H15S 6453   1.501   0.411   5.492
   50DPPC  C216 6454   1.523   0.590   5.611
   50DPPC  H16R 6455   1.628   0.614   5.641
   50DPPC  H16S 6456   1.454   0.633   5.686
   50DPPC  H16T 6457   1.504   0.636   5.512
   50DPPC   C33 6458   1.590   0.654   5.062
   50DPPC   H3X 6459   1.555   0.759   5.048
   50DPPC   H3Y 6460   1.695   0.650   5.024
   50DPPC   C34 6461   1.595   0.626   5.212
   50DPPC   H4X 6462   1.656   0.535   5.231
   50DPPC   H4Y 6463   1.493   0.606   5.250
   50DPPC   C35 6464   1.655   0.746   5.287
   50DPPC   H5X 6465   1.664   0.723   5.395
   50DPPC   H5Y 6466   1.581   0.828   5.279
   50DPPC   C36 6467   1.785   0.805   5.230
   50DPPC   H6X 6468   1.783   0.915   5.251
   50DPPC   H6Y 6469   1.789   0.803   5.119
   50DPPC   C37 6470   1.917   0.751   5.286
   50DPPC   H7X 6471   1.988   0.837   5.288
   50DPPC   H7Y 6472   1.958   0.676   5.216
   50DPPC   C38 6473   1.914   0.688   5.426
   50DPPC   H8X 6474   1.868   0.587   5.419
   50DPPC   H8Y 6475   1.852   0.749   5.494
   50DPPC   C39 6476   2.056   0.676   5.485
   50DPPC   H9X 6477   2.103   0.777   5.487
   50DPPC   H9Y 6478   2.117   0.612   5.418
   50DPPC  C310 6479   2.056   0.618   5.626
   50DPPC  H10X 6480   2.161   0.600   5.657
   50DPPC  H10Y 6481   2.002   0.520   5.624
   50DPPC  C311 6482   1.991   0.710   5.731
   50DPPC  H11X 6483   1.882   0.717   5.711
   50DPPC  H11Y 6484   2.035   0.811   5.720
   50DPPC  C312 6485   2.012   0.661   5.875
   50DPPC  H12X 6486   1.969   0.736   5.945
   50DPPC  H12Y 6487   2.122   0.656   5.895
   50DPPC  C313 6488   1.948   0.525   5.902
   50DPPC  H13X 6489   1.993   0.449   5.834
   50DPPC  H13Y 6490   1.839   0.529   5.880
   50DPPC  C314 6491   1.969   0.479   6.047
   50DPPC  H14X 6492   2.071   0.510   6.078
   50DPPC  H14Y 6493   1.966   0.368   6.052
   50DPPC  C315 6494   1.864   0.537   6.142
   50DPPC  H15X 6495   1.783   0.462   6.156
   50DPPC  H15Y 6496   1.818   0.627   6.095
   50DPPC  C316 6497   1.920   0.578   6.278
   50DPPC  H16X 6498   1.998   0.655   6.267
   50DPPC  H16Y 6499   1.963   0.490   6.328
   50DPPC  H16Z 6500   1.840   0.619   6.343
   51DPPC     N 6501   0.556   3.161   4.239
   51DPPC   C13 6502   0.581   3.307   4.213
   51DPPC  H13A 6503   0.529   3.375   4.280
   51DPPC  H13B 6504   0.546   3.333   4.113
   51DPPC  H13C 6505   0.686   3.333   4.215
   51DPPC   C14 6506   0.627   3.086   4.132
   51DPPC  H14A 6507   0.610   2.978   4.138
   51DPPC  H14B 6508   0.733   3.106   4.129
   51DPPC  H14C 6509   0.584   3.114   4.036
   51DPPC   C15 6510   0.606   3.114   4.372
   51DPPC  H15A 6511   0.554   3.165   4.452
   51DPPC  H15B 6512   0.712   3.132   4.385
   51DPPC  H15C 6513   0.589   3.007   4.382
   51DPPC   C12 6514   0.405   3.136   4.242
   51DPPC  H12A 6515   0.364   3.188   4.328
   51DPPC  H12B 6516   0.389   3.030   4.261
   51DPPC   C11 6517   0.317   3.170   4.119
   51DPPC  H11A 6518   0.325   3.278   4.097
   51DPPC  H11B 6519   0.210   3.151   4.145
   51DPPC     P 6520   0.354   2.935   4.001
   51DPPC   O13 6521   0.494   2.896   3.968
   51DPPC   O14 6522   0.249   2.888   3.910
   51DPPC   O11 6523   0.320   2.892   4.150
   51DPPC   O12 6524   0.352   3.095   4.002
   51DPPC    C1 6525   0.407   2.805   4.222
   51DPPC    HA 6526   0.514   2.837   4.214
   51DPPC    HB 6527   0.402   2.701   4.182
   51DPPC    C2 6528   0.370   2.805   4.373
   51DPPC    HS 6529   0.312   2.898   4.391
   51DPPC   O21 6530   0.492   2.807   4.450
   51DPPC   C21 6531   0.486   2.860   4.573
   51DPPC   O22 6532   0.392   2.920   4.621
   51DPPC   C22 6533   0.627   2.847   4.631
   51DPPC   H2R 6534   0.694   2.918   4.578
   51DPPC   H2S 6535   0.662   2.744   4.609
   51DPPC    C3 6536   0.280   2.681   4.405
   51DPPC    HX 6537   0.340   2.590   4.385
   51DPPC    HY 6538   0.197   2.680   4.331
   51DPPC   O31 6539   0.230   2.673   4.540
   51DPPC   C31 6540   0.134   2.762   4.564
   51DPPC   O32 6541   0.107   2.856   4.491
   51DPPC   C32 6542   0.068   2.737   4.699
   51DPPC   H2X 6543   0.093   2.635   4.736
   51DPPC   H2Y 6544  -0.041   2.739   4.682
   51DPPC   C23 6545   0.634   2.870   4.783
   51DPPC   H3R 6546   0.732   2.828   4.817
   51DPPC   H3S 6547   0.555   2.812   4.835
   51DPPC   C24 6548   0.629   3.017   4.825
   51DPPC   H4R 6549   0.524   3.054   4.817
   51DPPC   H4S 6550   0.693   3.079   4.758
   51DPPC   C25 6551   0.679   3.033   4.969
   51DPPC   H5R 6552   0.789   3.016   4.971
   51DPPC   H5S 6553   0.632   2.954   5.031
   51DPPC   C26 6554   0.646   3.169   5.033
   51DPPC   H6R 6555   0.535   3.177   5.038
   51DPPC   H6S 6556   0.684   3.252   4.970
   51DPPC   C27 6557   0.707   3.179   5.173
   51DPPC   H7R 6558   0.818   3.182   5.162
   51DPPC   H7S 6559   0.683   3.086   5.229
   51DPPC   C28 6560   0.663   3.300   5.259
   51DPPC   H8R 6561   0.717   3.389   5.220
   51DPPC   H8S 6562   0.697   3.284   5.364
   51DPPC   C29 6563   0.513   3.334   5.258
   51DPPC   H9R 6564   0.488   3.357   5.153
   51DPPC   H9S 6565   0.498   3.426   5.318
   51DPPC  C210 6566   0.411   3.230   5.305
   51DPPC  H10R 6567   0.435   3.132   5.260
   51DPPC  H10S 6568   0.312   3.259   5.262
   51DPPC  C211 6569   0.392   3.222   5.457
   51DPPC  H11R 6570   0.376   3.323   5.499
   51DPPC  H11S 6571   0.485   3.182   5.503
   51DPPC  C212 6572   0.270   3.135   5.494
   51DPPC  H12R 6573   0.273   3.046   5.429
   51DPPC  H12S 6574   0.177   3.190   5.470
   51DPPC  C213 6575   0.266   3.088   5.640
   51DPPC  H13R 6576   0.234   3.171   5.706
   51DPPC  H13S 6577   0.369   3.058   5.671
   51DPPC  C214 6578   0.173   2.966   5.657
   51DPPC  H14R 6579   0.200   2.892   5.579
   51DPPC  H14S 6580   0.068   2.996   5.640
   51DPPC  C215 6581   0.185   2.895   5.793
   51DPPC  H15R 6582   0.292   2.871   5.812
   51DPPC  H15S 6583   0.129   2.799   5.786
   51DPPC  C216 6584   0.128   2.974   5.911
   51DPPC  H16R 6585   0.179   3.072   5.922
   51DPPC  H16S 6586   0.141   2.917   6.005
   51DPPC  H16T 6587   0.019   2.992   5.897
   51DPPC   C33 6588   0.105   2.847   4.799
   51DPPC   H3X 6589   0.022   2.863   4.872
   51DPPC   H3Y 6590   0.119   2.945   4.747
   51DPPC   C34 6591   0.230   2.810   4.878
   51DPPC   H4X 6592   0.269   2.901   4.927
   51DPPC   H4Y 6593   0.308   2.773   4.807
   51DPPC   C35 6594   0.199   2.701   4.981
   51DPPC   H5X 6595   0.260   2.611   4.958
   51DPPC   H5Y 6596   0.092   2.670   4.974
   51DPPC   C36 6597   0.230   2.748   5.123
   51DPPC   H6X 6598   0.206   2.665   5.193
   51DPPC   H6Y 6599   0.166   2.834   5.152
   51DPPC   C37 6600   0.378   2.787   5.136
   51DPPC   H7X 6601   0.392   2.897   5.136
   51DPPC   H7Y 6602   0.432   2.747   5.047
   51DPPC   C38 6603   0.444   2.722   5.257
   51DPPC   H8X 6604   0.551   2.705   5.232
   51DPPC   H8Y 6605   0.398   2.623   5.273
   51DPPC   C39 6606   0.434   2.802   5.387
   51DPPC   H9X 6607   0.442   2.734   5.475
   51DPPC   H9Y 6608   0.334   2.849   5.391
   51DPPC  C310 6609   0.544   2.908   5.396
   51DPPC  H10X 6610   0.522   2.975   5.483
   51DPPC  H10Y 6611   0.537   2.969   5.304
   51DPPC  C311 6612   0.688   2.857   5.407
   51DPPC  H11X 6613   0.756   2.946   5.413
   51DPPC  H11Y 6614   0.717   2.800   5.316
   51DPPC  C312 6615   0.715   2.771   5.532
   51DPPC  H12X 6616   0.823   2.744   5.534
   51DPPC  H12Y 6617   0.656   2.677   5.529
   51DPPC  C313 6618   0.677   2.844   5.661
   51DPPC  H13X 6619   0.566   2.854   5.667
   51DPPC  H13Y 6620   0.716   2.947   5.653
   51DPPC  C314 6621   0.730   2.771   5.785
   51DPPC  H14X 6622   0.758   2.844   5.863
   51DPPC  H14Y 6623   0.821   2.713   5.758
   51DPPC  C315 6624   0.622   2.679   5.843
   51DPPC  H15X 6625   0.669   2.598   5.903
   51DPPC  H15Y 6626   0.568   2.630   5.758
   51DPPC  C316 6627   0.524   2.757   5.930
   51DPPC  H16X 6628   0.423   2.710   5.927
   51DPPC  H16Y 6629   0.513   2.861   5.894
   51DPPC  H16Z 6630   0.559   2.760   6.035
   52DPPC     N 6631   3.409   0.721   4.175
   52DPPC   C13 6632   3.384   0.613   4.073
   52DPPC  H13A 6633   3.338   0.527   4.124
   52DPPC  H13B 6634   3.475   0.582   4.024
   52DPPC  H13C 6635   3.315   0.647   3.997
   52DPPC   C14 6636   3.510   0.672   4.273
   52DPPC  H14A 6637   3.542   0.750   4.340
   52DPPC  H14B 6638   3.593   0.626   4.221
   52DPPC  H14C 6639   3.464   0.592   4.333
   52DPPC   C15 6640   3.452   0.845   4.104
   52DPPC  H15A 6641   3.537   0.831   4.038
   52DPPC  H15B 6642   3.473   0.926   4.172
   52DPPC  H15C 6643   3.373   0.881   4.038
   52DPPC   C12 6644   3.278   0.748   4.248
   52DPPC  H12A 6645   3.201   0.764   4.173
   52DPPC  H12B 6646   3.287   0.840   4.304
   52DPPC   C11 6647   3.228   0.639   4.347
   52DPPC  H11A 6648   3.125   0.668   4.380
   52DPPC  H11B 6649   3.290   0.639   4.439
   52DPPC     P 6650   3.110   0.413   4.282
   52DPPC   O13 6651   3.066   0.405   4.141
   52DPPC   O14 6652   3.004   0.452   4.378
   52DPPC   O11 6653   3.168   0.271   4.315
   52DPPC   O12 6654   3.234   0.508   4.290
   52DPPC    C1 6655   3.107   0.190   4.414
   52DPPC    HA 6656   3.107   0.085   4.377
   52DPPC    HB 6657   3.002   0.217   4.435
   52DPPC    C2 6658   3.189   0.198   4.545
   52DPPC    HS 6659   3.163   0.108   4.606
   52DPPC   O21 6660   3.161   0.317   4.620
   52DPPC   C21 6661   3.036   0.323   4.666
   52DPPC   O22 6662   2.957   0.230   4.664
   52DPPC   C22 6663   3.005   0.460   4.726
   52DPPC   H2R 6664   2.921   0.447   4.797
   52DPPC   H2S 6665   2.968   0.523   4.642
   52DPPC    C3 6666   3.338   0.190   4.508
   52DPPC    HX 6667   3.373   0.291   4.477
   52DPPC    HY 6668   3.350   0.122   4.421
   52DPPC   O31 6669   3.409   0.133   4.619
   52DPPC   C31 6670   3.485   0.215   4.688
   52DPPC   O32 6671   3.522   0.326   4.654
   52DPPC   C32 6672   3.506   0.153   4.825
   52DPPC   H2X 6673   3.511   0.043   4.814
   52DPPC   H2Y 6674   3.414   0.179   4.883
   52DPPC   C23 6675   3.124   0.532   4.794
   52DPPC   H3R 6676   3.091   0.635   4.823
   52DPPC   H3S 6677   3.207   0.545   4.720
   52DPPC   C24 6678   3.179   0.462   4.919
   52DPPC   H4R 6679   3.268   0.519   4.955
   52DPPC   H4S 6680   3.215   0.361   4.891
   52DPPC   C25 6681   3.077   0.451   5.034
   52DPPC   H5R 6682   3.069   0.343   5.063
   52DPPC   H5S 6683   2.977   0.484   5.001
   52DPPC   C26 6684   3.117   0.531   5.159
   52DPPC   H6R 6685   3.217   0.498   5.192
   52DPPC   H6S 6686   3.045   0.506   5.241
   52DPPC   C27 6687   3.117   0.683   5.141
   52DPPC   H7R 6688   3.018   0.715   5.101
   52DPPC   H7S 6689   3.194   0.712   5.066
   52DPPC   C28 6690   3.143   0.758   5.272
   52DPPC   H8R 6691   3.067   0.728   5.347
   52DPPC   H8S 6692   3.131   0.868   5.254
   52DPPC   C29 6693   3.283   0.734   5.330
   52DPPC   H9R 6694   3.358   0.769   5.256
   52DPPC   H9S 6695   3.300   0.625   5.347
   52DPPC  C210 6696   3.304   0.808   5.463
   52DPPC  H10R 6697   3.244   0.761   5.543
   52DPPC  H10S 6698   3.266   0.912   5.450
   52DPPC  C211 6699   3.452   0.819   5.503
   52DPPC  H11R 6700   3.458   0.889   5.589
   52DPPC  H11S 6701   3.509   0.865   5.419
   52DPPC  C212 6702   3.519   0.686   5.542
   52DPPC  H12R 6703   3.629   0.698   5.548
   52DPPC  H12S 6704   3.499   0.611   5.461
   52DPPC  C213 6705   3.469   0.628   5.675
   52DPPC  H13R 6706   3.504   0.523   5.684
   52DPPC  H13S 6707   3.358   0.626   5.670
   52DPPC  C214 6708   3.511   0.706   5.801
   52DPPC  H14R 6709   3.498   0.815   5.784
   52DPPC  H14S 6710   3.618   0.688   5.822
   52DPPC  C215 6711   3.425   0.668   5.922
   52DPPC  H15R 6712   3.319   0.696   5.900
   52DPPC  H15S 6713   3.456   0.728   6.010
   52DPPC  C216 6714   3.429   0.519   5.959
   52DPPC  H16R 6715   3.526   0.492   6.005
   52DPPC  H16S 6716   3.413   0.454   5.871
   52DPPC  H16T 6717   3.350   0.497   6.033
   52DPPC   C33 6718   3.629   0.205   4.900
   52DPPC   H3X 6719   3.658   0.308   4.868
   52DPPC   H3Y 6720   3.715   0.138   4.877
   52DPPC   C34 6721   3.600   0.207   5.050
   52DPPC   H4X 6722   3.692   0.178   5.103
   52DPPC   H4Y 6723   3.524   0.129   5.073
   52DPPC   C35 6724   3.551   0.344   5.101
   52DPPC   H5X 6725   3.502   0.398   5.016
   52DPPC   H5Y 6726   3.638   0.405   5.133
   52DPPC   C36 6727   3.447   0.334   5.213
   52DPPC   H6X 6728   3.357   0.281   5.172
   52DPPC   H6Y 6729   3.415   0.436   5.243
   52DPPC   C37 6730   3.496   0.260   5.339
   52DPPC   H7X 6731   3.546   0.331   5.407
   52DPPC   H7Y 6732   3.568   0.181   5.311
   52DPPC   C38 6733   3.383   0.194   5.418
   52DPPC   H8X 6734   3.425   0.147   5.510
   52DPPC   H8Y 6735   3.339   0.113   5.356
   52DPPC   C39 6736   3.267   0.286   5.455
   52DPPC   H9X 6737   3.213   0.317   5.363
   52DPPC   H9Y 6738   3.308   0.377   5.503
   52DPPC  C310 6739   3.169   0.213   5.548
   52DPPC  H10X 6740   3.221   0.193   5.645
   52DPPC  H10Y 6741   3.142   0.115   5.504
   52DPPC  C311 6742   3.041   0.294   5.574
   52DPPC  H11X 6743   2.980   0.241   5.650
   52DPPC  H11Y 6744   2.981   0.294   5.480
   52DPPC  C312 6745   3.068   0.439   5.615
   52DPPC  H12X 6746   2.973   0.490   5.635
   52DPPC  H12Y 6747   3.113   0.493   5.529
   52DPPC  C313 6748   3.160   0.457   5.737
   52DPPC  H13X 6749   3.173   0.566   5.756
   52DPPC  H13Y 6750   3.261   0.419   5.711
   52DPPC  C314 6751   3.114   0.387   5.866
   52DPPC  H14X 6752   3.201   0.335   5.911
   52DPPC  H14Y 6753   3.040   0.308   5.841
   52DPPC  C315 6754   3.053   0.481   5.971
   52DPPC  H15X 6755   3.132   0.537   6.024
   52DPPC  H15Y 6756   3.000   0.417   6.045
   52DPPC  C316 6757   2.956   0.581   5.910
   52DPPC  H16X 6758   2.892   0.631   5.985
   52DPPC  H16Y 6759   2.891   0.524   5.842
   52DPPC  H16Z 6760   3.008   0.658   5.851
   53DPPC     N 6761   0.918   0.569   4.130
   53DPPC   C13 6762   0.795   0.643   4.083
   53DPPC  H13A 6763   0.712   0.633   4.152
   53DPPC  H13B 6764   0.758   0.604   3.988
   53DPPC  H13C 6765   0.814   0.749   4.070
   53DPPC   C14 6766   0.883   0.425   4.153
   53DPPC  H14A 6767   0.973   0.364   4.155
   53DPPC  H14B 6768   0.820   0.389   4.072
   53DPPC  H14C 6769   0.828   0.411   4.245
   53DPPC   C15 6770   1.024   0.575   4.025
   53DPPC  H15A 6771   0.997   0.523   3.934
   53DPPC  H15B 6772   1.117   0.530   4.061
   53DPPC  H15C 6773   1.050   0.679   4.004
   53DPPC   C12 6774   0.972   0.637   4.254
   53DPPC  H12A 6775   1.057   0.581   4.294
   53DPPC  H12B 6776   0.898   0.638   4.332
   53DPPC   C11 6777   1.022   0.782   4.235
   53DPPC  H11A 6778   1.022   0.834   4.334
   53DPPC  H11B 6779   0.951   0.838   4.171
   53DPPC     P 6780   1.278   0.797   4.266
   53DPPC   O13 6781   1.283   0.939   4.298
   53DPPC   O14 6782   1.394   0.737   4.195
   53DPPC   O11 6783   1.233   0.707   4.388
   53DPPC   O12 6784   1.151   0.780   4.172
   53DPPC    C1 6785   1.262   0.571   4.408
   53DPPC    HA 6786   1.372   0.554   4.403
   53DPPC    HB 6787   1.217   0.506   4.330
   53DPPC    C2 6788   1.210   0.526   4.548
   53DPPC    HS 6789   1.272   0.437   4.575
   53DPPC   O21 6790   1.070   0.490   4.542
   53DPPC   C21 6791   1.026   0.422   4.648
   53DPPC   O22 6792   1.096   0.368   4.731
   53DPPC   C22 6793   0.875   0.431   4.654
   53DPPC   H2R 6794   0.839   0.363   4.733
   53DPPC   H2S 6795   0.832   0.402   4.557
   53DPPC    C3 6796   1.232   0.634   4.660
   53DPPC    HX 6797   1.340   0.659   4.659
   53DPPC    HY 6798   1.215   0.587   4.759
   53DPPC   O31 6799   1.148   0.752   4.651
   53DPPC   C31 6800   1.217   0.868   4.654
   53DPPC   O32 6801   1.332   0.883   4.620
   53DPPC   C32 6802   1.142   0.964   4.743
   53DPPC   H2X 6803   1.040   0.927   4.765
   53DPPC   H2Y 6804   1.135   1.060   4.688
   53DPPC   C23 6805   0.833   0.574   4.691
   53DPPC   H3R 6806   0.722   0.578   4.691
   53DPPC   H3S 6807   0.871   0.648   4.616
   53DPPC   C24 6808   0.882   0.613   4.830
   53DPPC   H4R 6809   0.993   0.624   4.832
   53DPPC   H4S 6810   0.857   0.529   4.899
   53DPPC   C25 6811   0.818   0.742   4.884
   53DPPC   H5R 6812   0.731   0.769   4.822
   53DPPC   H5S 6813   0.890   0.826   4.877
   53DPPC   C26 6814   0.773   0.724   5.030
   53DPPC   H6R 6815   0.706   0.636   5.033
   53DPPC   H6S 6816   0.715   0.813   5.061
   53DPPC   C27 6817   0.892   0.702   5.123
   53DPPC   H7R 6818   0.958   0.789   5.104
   53DPPC   H7S 6819   0.948   0.610   5.096
   53DPPC   C28 6820   0.859   0.699   5.274
   53DPPC   H8R 6821   0.839   0.595   5.306
   53DPPC   H8S 6822   0.769   0.760   5.295
   53DPPC   C29 6823   0.980   0.757   5.348
   53DPPC   H9R 6824   0.992   0.862   5.311
   53DPPC   H9S 6825   1.069   0.697   5.319
   53DPPC  C210 6826   0.975   0.769   5.500
   53DPPC  H10R 6827   0.888   0.832   5.529
   53DPPC  H10S 6828   1.065   0.825   5.534
   53DPPC  C211 6829   0.971   0.636   5.575
   53DPPC  H11R 6830   1.056   0.633   5.647
   53DPPC  H11S 6831   0.983   0.549   5.506
   53DPPC  C212 6832   0.839   0.629   5.651
   53DPPC  H12R 6833   0.758   0.644   5.577
   53DPPC  H12S 6834   0.836   0.716   5.721
   53DPPC  C213 6835   0.811   0.502   5.731
   53DPPC  H13R 6836   0.769   0.422   5.668
   53DPPC  H13S 6837   0.734   0.532   5.806
   53DPPC  C214 6838   0.927   0.451   5.815
   53DPPC  H14R 6839   0.890   0.439   5.920
   53DPPC  H14S 6840   1.007   0.528   5.818
   53DPPC  C215 6841   0.984   0.316   5.771
   53DPPC  H15R 6842   1.095   0.325   5.771
   53DPPC  H15S 6843   0.954   0.291   5.667
   53DPPC  C216 6844   0.943   0.205   5.868
   53DPPC  H16R 6845   0.960   0.238   5.973
   53DPPC  H16S 6846   1.002   0.113   5.852
   53DPPC  H16T 6847   0.835   0.181   5.857
   53DPPC   C33 6848   1.228   0.982   4.871
   53DPPC   H3X 6849   1.189   1.073   4.920
   53DPPC   H3Y 6850   1.333   1.004   4.841
   53DPPC   C34 6851   1.229   0.867   4.973
   53DPPC   H4X 6852   1.321   0.806   4.960
   53DPPC   H4Y 6853   1.142   0.801   4.953
   53DPPC   C35 6854   1.219   0.915   5.120
   53DPPC   H5X 6855   1.134   0.860   5.164
   53DPPC   H5Y 6856   1.192   1.022   5.124
   53DPPC   C36 6857   1.336   0.889   5.217
   53DPPC   H6X 6858   1.417   0.964   5.202
   53DPPC   H6Y 6859   1.378   0.789   5.197
   53DPPC   C37 6860   1.287   0.893   5.363
   53DPPC   H7X 6861   1.237   0.796   5.382
   53DPPC   H7Y 6862   1.210   0.974   5.373
   53DPPC   C38 6863   1.389   0.911   5.476
   53DPPC   H8X 6864   1.440   1.009   5.469
   53DPPC   H8Y 6865   1.468   0.834   5.468
   53DPPC   C39 6866   1.319   0.896   5.613
   53DPPC   H9X 6867   1.270   0.796   5.614
   53DPPC   H9Y 6868   1.240   0.974   5.621
   53DPPC  C310 6869   1.410   0.904   5.736
   53DPPC  H10X 6870   1.449   1.008   5.749
   53DPPC  H10Y 6871   1.499   0.839   5.720
   53DPPC  C311 6872   1.335   0.859   5.863
   53DPPC  H11X 6873   1.252   0.792   5.833
   53DPPC  H11Y 6874   1.288   0.947   5.911
   53DPPC  C312 6875   1.420   0.780   5.966
   53DPPC  H12X 6876   1.527   0.782   5.940
   53DPPC  H12Y 6877   1.386   0.676   5.962
   53DPPC  C313 6878   1.396   0.826   6.111
   53DPPC  H13X 6879   1.286   0.826   6.127
   53DPPC  H13Y 6880   1.429   0.932   6.113
   53DPPC  C314 6881   1.462   0.749   6.228
   53DPPC  H14X 6882   1.531   0.815   6.285
   53DPPC  H14Y 6883   1.527   0.669   6.189
   53DPPC  C315 6884   1.364   0.699   6.337
   53DPPC  H15X 6885   1.261   0.704   6.297
   53DPPC  H15Y 6886   1.368   0.768   6.423
   53DPPC  C316 6887   1.385   0.555   6.387
   53DPPC  H16X 6888   1.387   0.553   6.498
   53DPPC  H16Y 6889   1.481   0.514   6.348
   53DPPC  H16Z 6890   1.302   0.489   6.355
   54DPPC     N 6891   3.839   0.956   4.178
   54DPPC   C13 6892   3.903   0.932   4.313
   54DPPC  H13A 6893   3.831   0.908   4.389
   54DPPC  H13B 6894   3.954   1.022   4.347
   54DPPC  H13C 6895   3.978   0.854   4.308
   54DPPC   C14 6896   3.944   1.011   4.087
   54DPPC  H14A 6897   4.036   0.954   4.091
   54DPPC  H14B 6898   3.967   1.113   4.118
   54DPPC  H14C 6899   3.910   1.019   3.984
   54DPPC   C15 6900   3.790   0.828   4.119
   54DPPC  H15A 6901   3.708   0.788   4.177
   54DPPC  H15B 6902   3.871   0.756   4.117
   54DPPC  H15C 6903   3.757   0.845   4.017
   54DPPC   C12 6904   3.726   1.058   4.193
   54DPPC  H12A 6905   3.646   1.012   4.247
   54DPPC  H12B 6906   3.690   1.088   4.094
   54DPPC   C11 6907   3.756   1.191   4.265
   54DPPC  H11A 6908   3.781   1.171   4.372
   54DPPC  H11B 6909   3.664   1.254   4.267
   54DPPC     P 6910   3.982   1.323   4.263
   54DPPC   O13 6911   3.956   1.461   4.310
   54DPPC   O14 6912   4.091   1.304   4.164
   54DPPC   O11 6913   3.999   1.223   4.387
   54DPPC   O12 6914   3.856   1.264   4.193
   54DPPC    C1 6915   4.098   1.238   4.490
   54DPPC    HA 6916   4.140   1.341   4.490
   54DPPC    HB 6917   4.181   1.167   4.471
   54DPPC    C2 6918   4.051   1.210   4.640
   54DPPC    HS 6919   4.143   1.195   4.700
   54DPPC   O21 6920   3.966   1.094   4.648
   54DPPC   C21 6921   3.949   1.033   4.767
   54DPPC   O22 6922   4.014   1.052   4.867
   54DPPC   C22 6923   3.831   0.937   4.751
   54DPPC   H2R 6924   3.863   0.861   4.677
   54DPPC   H2S 6925   3.746   0.994   4.708
   54DPPC    C3 6926   3.979   1.335   4.698
   54DPPC    HX 6927   3.899   1.360   4.625
   54DPPC    HY 6928   4.050   1.421   4.698
   54DPPC   O31 6929   3.920   1.312   4.829
   54DPPC   C31 6930   3.999   1.339   4.934
   54DPPC   O32 6931   4.107   1.393   4.928
   54DPPC   C32 6932   3.933   1.295   5.066
   54DPPC   H2X 6933   4.006   1.228   5.115
   54DPPC   H2Y 6934   3.841   1.238   5.044
   54DPPC   C23 6935   3.788   0.867   4.882
   54DPPC   H3R 6936   3.879   0.828   4.932
   54DPPC   H3S 6937   3.723   0.780   4.856
   54DPPC   C24 6938   3.709   0.957   4.978
   54DPPC   H4R 6939   3.611   0.984   4.932
   54DPPC   H4S 6940   3.765   1.051   4.994
   54DPPC   C25 6941   3.683   0.890   5.115
   54DPPC   H5R 6942   3.621   0.800   5.100
   54DPPC   H5S 6943   3.625   0.961   5.179
   54DPPC   C26 6944   3.810   0.850   5.192
   54DPPC   H6R 6945   3.869   0.776   5.133
   54DPPC   H6S 6946   3.778   0.797   5.285
   54DPPC   C27 6947   3.899   0.969   5.230
   54DPPC   H7R 6948   3.840   1.040   5.292
   54DPPC   H7S 6949   3.929   1.022   5.136
   54DPPC   C28 6950   4.029   0.934   5.304
   54DPPC   H8R 6951   4.085   1.028   5.325
   54DPPC   H8S 6952   4.092   0.872   5.237
   54DPPC   C29 6953   4.012   0.858   5.436
   54DPPC   H9R 6954   4.113   0.823   5.469
   54DPPC   H9S 6955   3.950   0.767   5.420
   54DPPC  C210 6956   3.951   0.943   5.548
   54DPPC  H10R 6957   3.975   1.049   5.528
   54DPPC  H10S 6958   3.998   0.917   5.646
   54DPPC  C211 6959   3.800   0.921   5.562
   54DPPC  H11R 6960   3.784   0.824   5.613
   54DPPC  H11S 6961   3.753   0.915   5.461
   54DPPC  C212 6962   3.727   1.029   5.641
   54DPPC  H12R 6963   3.763   1.024   5.746
   54DPPC  H12S 6964   3.618   1.005   5.644
   54DPPC  C213 6965   3.743   1.171   5.584
   54DPPC  H13R 6966   3.720   1.170   5.475
   54DPPC  H13S 6967   3.849   1.203   5.595
   54DPPC  C214 6968   3.654   1.276   5.652
   54DPPC  H14R 6969   3.551   1.267   5.612
   54DPPC  H14S 6970   3.691   1.378   5.625
   54DPPC  C215 6971   3.649   1.264   5.805
   54DPPC  H15R 6972   3.598   1.168   5.831
   54DPPC  H15S 6973   3.585   1.346   5.845
   54DPPC  C216 6974   3.785   1.267   5.875
   54DPPC  H16R 6975   3.839   1.360   5.847
   54DPPC  H16S 6976   3.849   1.182   5.844
   54DPPC  H16T 6977   3.773   1.264   5.985
   54DPPC   C33 6978   3.901   1.412   5.162
   54DPPC   H3X 6979   3.802   1.454   5.137
   54DPPC   H3Y 6980   3.974   1.495   5.149
   54DPPC   C34 6981   3.891   1.373   5.310
   54DPPC   H4X 6982   3.884   1.262   5.320
   54DPPC   H4Y 6983   3.797   1.416   5.352
   54DPPC   C35 6984   4.008   1.427   5.391
   54DPPC   H5X 6985   4.058   1.508   5.333
   54DPPC   H5Y 6986   4.082   1.346   5.410
   54DPPC   C36 6987   3.971   1.495   5.521
   54DPPC   H6X 6988   3.926   1.422   5.591
   54DPPC   H6Y 6989   3.892   1.570   5.500
   54DPPC   C37 6990   4.095   1.564   5.578
   54DPPC   H7X 6991   4.087   1.674   5.571
   54DPPC   H7Y 6992   4.183   1.536   5.516
   54DPPC   C38 6993   4.130   1.523   5.721
   54DPPC   H8X 6994   4.052   1.560   5.791
   54DPPC   H8Y 6995   4.225   1.574   5.747
   54DPPC   C39 6996   4.147   1.371   5.735
   54DPPC   H9X 6997   4.223   1.333   5.664
   54DPPC   H9Y 6998   4.051   1.320   5.713
   54DPPC  C310 6999   4.184   1.334   5.878
   54DPPC  H10X 7000   4.173   1.224   5.890
   54DPPC  H10Y 7001   4.109   1.383   5.945
   54DPPC  C311 7002   4.325   1.375   5.920
   54DPPC  H11X 7003   4.358   1.468   5.870
   54DPPC  H11Y 7004   4.396   1.295   5.889
   54DPPC  C312 7005   4.334   1.395   6.072
   54DPPC  H12X 7006   4.278   1.486   6.102
   54DPPC  H12Y 7007   4.440   1.408   6.102
   54DPPC  C313 7008   4.272   1.276   6.143
   54DPPC  H13X 7009   4.321   1.186   6.100
   54DPPC  H13Y 7010   4.163   1.268   6.123
   54DPPC  C314 7011   4.292   1.275   6.293
   54DPPC  H14X 7012   4.216   1.340   6.342
   54DPPC  H14Y 7013   4.391   1.316   6.318
   54DPPC  C315 7014   4.277   1.131   6.343
   54DPPC  H15X 7015   4.338   1.062   6.279
   54DPPC  H15Y 7016   4.172   1.099   6.327
   54DPPC  C316 7017   4.316   1.111   6.488
   54DPPC  H16X 7018   4.240   1.047   6.537
   54DPPC  H16Y 7019   4.323   1.208   6.542
   54DPPC  H16Z 7020   4.414   1.058   6.495
   55DPPC     N 7021   4.370   2.623   3.992
   55DPPC   C13 7022   4.250   2.537   4.012
   55DPPC  H13A 7023   4.168   2.570   3.951
   55DPPC  H13B 7024   4.221   2.543   4.117
   55DPPC  H13C 7025   4.274   2.433   3.990
   55DPPC   C14 7026   4.409   2.625   3.850
   55DPPC  H14A 7027   4.498   2.685   3.833
   55DPPC  H14B 7028   4.332   2.675   3.790
   55DPPC  H14C 7029   4.429   2.528   3.808
   55DPPC   C15 7030   4.338   2.763   4.033
   55DPPC  H15A 7031   4.256   2.803   3.975
   55DPPC  H15B 7032   4.423   2.828   4.018
   55DPPC  H15C 7033   4.314   2.764   4.140
   55DPPC   C12 7034   4.481   2.570   4.083
   55DPPC  H12A 7035   4.558   2.646   4.095
   55DPPC  H12B 7036   4.528   2.484   4.037
   55DPPC   C11 7037   4.438   2.524   4.225
   55DPPC  H11A 7038   4.530   2.511   4.287
   55DPPC  H11B 7039   4.388   2.425   4.219
   55DPPC     P 7040   4.308   2.602   4.438
   55DPPC   O13 7041   4.308   2.736   4.498
   55DPPC   O14 7042   4.392   2.497   4.498
   55DPPC   O11 7043   4.157   2.553   4.421
   55DPPC   O12 7044   4.349   2.618   4.285
   55DPPC    C1 7045   4.057   2.648   4.379
   55DPPC    HA 7046   3.991   2.597   4.306
   55DPPC    HB 7047   4.100   2.735   4.324
   55DPPC    C2 7048   3.963   2.694   4.497
   55DPPC    HS 7049   3.863   2.717   4.452
   55DPPC   O21 7050   4.004   2.809   4.572
   55DPPC   C21 7051   4.034   2.922   4.512
   55DPPC   O22 7052   4.035   2.945   4.392
   55DPPC   C22 7053   4.046   3.029   4.621
   55DPPC   H2R 7054   3.971   3.009   4.700
   55DPPC   H2S 7055   4.021   3.126   4.571
   55DPPC    C3 7056   3.943   2.578   4.599
   55DPPC    HX 7057   4.039   2.567   4.655
   55DPPC    HY 7058   3.929   2.485   4.540
   55DPPC   O31 7059   3.826   2.597   4.682
   55DPPC   C31 7060   3.848   2.624   4.810
   55DPPC   O32 7061   3.957   2.631   4.863
   55DPPC   C32 7062   3.716   2.634   4.886
   55DPPC   H2X 7063   3.653   2.547   4.861
   55DPPC   H2Y 7064   3.666   2.726   4.850
   55DPPC   C23 7065   4.188   3.040   4.679
   55DPPC   H3R 7066   4.192   3.127   4.748
   55DPPC   H3S 7067   4.258   3.063   4.595
   55DPPC   C24 7068   4.240   2.915   4.753
   55DPPC   H4R 7069   4.350   2.918   4.740
   55DPPC   H4S 7070   4.205   2.822   4.702
   55DPPC   C25 7071   4.209   2.907   4.902
   55DPPC   H5R 7072   4.100   2.915   4.920
   55DPPC   H5S 7073   4.259   2.992   4.954
   55DPPC   C26 7074   4.260   2.774   4.962
   55DPPC   H6R 7075   4.334   2.727   4.894
   55DPPC   H6S 7076   4.175   2.703   4.970
   55DPPC   C27 7077   4.325   2.791   5.100
   55DPPC   H7R 7078   4.260   2.855   5.163
   55DPPC   H7S 7079   4.423   2.842   5.089
   55DPPC   C28 7080   4.346   2.657   5.171
   55DPPC   H8R 7081   4.414   2.591   5.114
   55DPPC   H8S 7082   4.248   2.605   5.175
   55DPPC   C29 7083   4.397   2.676   5.314
   55DPPC   H9R 7084   4.354   2.770   5.356
   55DPPC   H9S 7085   4.508   2.688   5.313
   55DPPC  C210 7086   4.358   2.561   5.408
   55DPPC  H10R 7087   4.404   2.467   5.373
   55DPPC  H10S 7088   4.248   2.548   5.406
   55DPPC  C211 7089   4.403   2.594   5.551
   55DPPC  H11R 7090   4.358   2.689   5.585
   55DPPC  H11S 7091   4.513   2.608   5.547
   55DPPC  C212 7092   4.373   2.484   5.653
   55DPPC  H12R 7093   4.439   2.508   5.741
   55DPPC  H12S 7094   4.402   2.384   5.613
   55DPPC  C213 7095   4.231   2.478   5.710
   55DPPC  H13R 7096   4.158   2.445   5.632
   55DPPC  H13S 7097   4.204   2.581   5.742
   55DPPC  C214 7098   4.223   2.386   5.833
   55DPPC  H14R 7099   4.311   2.407   5.897
   55DPPC  H14S 7100   4.229   2.279   5.802
   55DPPC  C215 7101   4.098   2.409   5.918
   55DPPC  H15R 7102   4.010   2.370   5.863
   55DPPC  H15S 7103   4.084   2.519   5.930
   55DPPC  C216 7104   4.105   2.346   6.058
   55DPPC  H16R 7105   4.190   2.389   6.116
   55DPPC  H16S 7106   4.119   2.236   6.051
   55DPPC  H16T 7107   4.012   2.365   6.114
   55DPPC   C33 7108   3.737   2.645   5.040
   55DPPC   H3X 7109   3.643   2.679   5.088
   55DPPC   H3Y 7110   3.815   2.722   5.060
   55DPPC   C34 7111   3.777   2.514   5.108
   55DPPC   H4X 7112   3.855   2.463   5.047
   55DPPC   H4Y 7113   3.689   2.447   5.114
   55DPPC   C35 7114   3.834   2.537   5.250
   55DPPC   H5X 7115   3.830   2.441   5.307
   55DPPC   H5Y 7116   3.771   2.610   5.303
   55DPPC   C36 7117   3.980   2.584   5.247
   55DPPC   H6X 7118   4.008   2.606   5.141
   55DPPC   H6Y 7119   4.047   2.501   5.281
   55DPPC   C37 7120   4.011   2.711   5.328
   55DPPC   H7X 7121   3.949   2.795   5.292
   55DPPC   H7Y 7122   4.117   2.738   5.310
   55DPPC   C38 7123   3.993   2.695   5.480
   55DPPC   H8X 7124   4.035   2.597   5.511
   55DPPC   H8Y 7125   3.885   2.694   5.505
   55DPPC   C39 7126   4.065   2.805   5.559
   55DPPC   H9X 7127   4.036   2.905   5.520
   55DPPC   H9Y 7128   4.175   2.794   5.544
   55DPPC  C310 7129   4.033   2.798   5.709
   55DPPC  H10X 7130   4.023   2.691   5.738
   55DPPC  H10Y 7131   3.935   2.847   5.724
   55DPPC  C311 7132   4.133   2.865   5.803
   55DPPC  H11X 7133   4.138   2.972   5.777
   55DPPC  H11Y 7134   4.234   2.820   5.790
   55DPPC  C312 7135   4.089   2.847   5.950
   55DPPC  H12X 7136   4.085   2.738   5.971
   55DPPC  H12Y 7137   3.986   2.887   5.961
   55DPPC  C313 7138   4.179   2.915   6.054
   55DPPC  H13X 7139   4.135   3.014   6.081
   55DPPC  H13Y 7140   4.278   2.933   6.006
   55DPPC  C314 7141   4.201   2.832   6.189
   55DPPC  H14X 7142   4.274   2.917   6.205
   55DPPC  H14Y 7143   4.091   2.809   6.175
   55DPPC  C315 7144   4.148   2.879   6.333
   55DPPC  H15X 7145   4.058   2.942   6.317
   55DPPC  H15Y 7146   4.222   2.944   6.385
   55DPPC  C316 7147   4.113   2.766   6.431
   55DPPC  H16X 7148   4.009   2.732   6.417
   55DPPC  H16Y 7149   4.123   2.802   6.536
   55DPPC  H16Z 7150   4.180   2.679   6.418
   56DPPC     N 7151   2.725   0.226   4.281
   56DPPC   C13 7152   2.776   0.115   4.368
   56DPPC  H13A 7153   2.884   0.121   4.378
   56DPPC  H13B 7154   2.753   0.018   4.325
   56DPPC  H13C 7155   2.734   0.117   4.468
   56DPPC   C14 7156   2.736   0.354   4.358
   56DPPC  H14A 7157   2.715   0.440   4.297
   56DPPC  H14B 7158   2.840   0.367   4.391
   56DPPC  H14C 7159   2.677   0.352   4.448
   56DPPC   C15 7160   2.817   0.229   4.161
   56DPPC  H15A 7161   2.920   0.246   4.191
   56DPPC  H15B 7162   2.790   0.306   4.091
   56DPPC  H15C 7163   2.812   0.133   4.111
   56DPPC   C12 7164   2.583   0.197   4.239
   56DPPC  H12A 7165   2.530   0.286   4.210
   56DPPC  H12B 7166   2.532   0.155   4.326
   56DPPC   C11 7167   2.567   0.090   4.128
   56DPPC  H11A 7168   2.615   0.124   4.033
   56DPPC  H11B 7169   2.459   0.079   4.103
   56DPPC     P 7170   2.547  -0.127   4.267
   56DPPC   O13 7171   2.643  -0.184   4.364
   56DPPC   O14 7172   2.470  -0.218   4.181
   56DPPC   O11 7173   2.449  -0.025   4.338
   56DPPC   O12 7174   2.626  -0.033   4.169
   56DPPC    C1 7175   2.308  -0.045   4.343
   56DPPC    HA 7176   2.275  -0.138   4.290
   56DPPC    HB 7177   2.257   0.038   4.291
   56DPPC    C2 7178   2.258  -0.058   4.490
   56DPPC    HS 7179   2.147  -0.068   4.489
   56DPPC   O21 7180   2.293   0.055   4.573
   56DPPC   C21 7181   2.259   0.175   4.534
   56DPPC   O22 7182   2.192   0.204   4.437
   56DPPC   C22 7183   2.312   0.278   4.634
   56DPPC   H2R 7184   2.260   0.262   4.730
   56DPPC   H2S 7185   2.277   0.376   4.595
   56DPPC    C3 7186   2.316  -0.188   4.554
   56DPPC    HX 7187   2.427  -0.185   4.548
   56DPPC    HY 7188   2.282  -0.273   4.491
   56DPPC   O31 7189   2.268  -0.208   4.688
   56DPPC   C31 7190   2.349  -0.168   4.787
   56DPPC   O32 7191   2.462  -0.126   4.774
   56DPPC   C32 7192   2.274  -0.183   4.919
   56DPPC   H2X 7193   2.343  -0.152   5.000
   56DPPC   H2Y 7194   2.249  -0.290   4.932
   56DPPC   C23 7195   2.466   0.277   4.655
   56DPPC   H3R 7196   2.506   0.380   4.642
   56DPPC   H3S 7197   2.516   0.211   4.581
   56DPPC   C24 7198   2.506   0.231   4.796
   56DPPC   H4R 7199   2.474   0.125   4.806
   56DPPC   H4S 7200   2.453   0.292   4.873
   56DPPC   C25 7201   2.657   0.238   4.823
   56DPPC   H5R 7202   2.689   0.343   4.841
   56DPPC   H5S 7203   2.710   0.203   4.731
   56DPPC   C26 7204   2.707   0.149   4.940
   56DPPC   H6R 7205   2.818   0.147   4.936
   56DPPC   H6S 7206   2.671   0.045   4.923
   56DPPC   C27 7207   2.664   0.195   5.080
   56DPPC   H7R 7208   2.554   0.182   5.088
   56DPPC   H7S 7209   2.687   0.303   5.092
   56DPPC   C28 7210   2.733   0.115   5.193
   56DPPC   H8R 7211   2.843   0.122   5.182
   56DPPC   H8S 7212   2.704   0.008   5.182
   56DPPC   C29 7213   2.695   0.161   5.335
   56DPPC   H9R 7214   2.585   0.177   5.338
   56DPPC   H9S 7215   2.744   0.259   5.355
   56DPPC  C210 7216   2.729   0.061   5.447
   56DPPC  H10R 7217   2.752   0.116   5.541
   56DPPC  H10S 7218   2.821   0.003   5.418
   56DPPC  C211 7219   2.612  -0.035   5.475
   56DPPC  H11R 7220   2.576  -0.074   5.377
   56DPPC  H11S 7221   2.528   0.021   5.521
   56DPPC  C212 7222   2.648  -0.157   5.561
   56DPPC  H12R 7223   2.743  -0.201   5.524
   56DPPC  H12S 7224   2.567  -0.233   5.547
   56DPPC  C213 7225   2.658  -0.134   5.713
   56DPPC  H13R 7226   2.559  -0.102   5.753
   56DPPC  H13S 7227   2.731  -0.053   5.736
   56DPPC  C214 7228   2.701  -0.265   5.782
   56DPPC  H14R 7229   2.802  -0.293   5.742
   56DPPC  H14S 7230   2.630  -0.344   5.754
   56DPPC  C215 7231   2.709  -0.261   5.936
   56DPPC  H15R 7232   2.750  -0.163   5.968
   56DPPC  H15S 7233   2.781  -0.340   5.968
   56DPPC  C216 7234   2.576  -0.290   6.005
   56DPPC  H16R 7235   2.585  -0.277   6.115
   56DPPC  H16S 7236   2.544  -0.395   5.985
   56DPPC  H16T 7237   2.497  -0.222   5.968
   56DPPC   C33 7238   2.145  -0.098   4.919
   56DPPC   H3X 7239   2.091  -0.110   5.015
   56DPPC   H3Y 7240   2.077  -0.136   4.839
   56DPPC   C34 7241   2.168   0.052   4.899
   56DPPC   H4X 7242   2.069   0.101   4.903
   56DPPC   H4Y 7243   2.209   0.067   4.797
   56DPPC   C35 7244   2.262   0.117   5.002
   56DPPC   H5X 7245   2.264   0.227   4.984
   56DPPC   H5Y 7246   2.365   0.079   4.987
   56DPPC   C36 7247   2.221   0.088   5.146
   56DPPC   H6X 7248   2.226  -0.022   5.161
   56DPPC   H6Y 7249   2.115   0.118   5.160
   56DPPC   C37 7250   2.310   0.151   5.254
   56DPPC   H7X 7251   2.408   0.100   5.254
   56DPPC   H7Y 7252   2.261   0.124   5.350
   56DPPC   C38 7253   2.333   0.303   5.245
   56DPPC   H8X 7254   2.243   0.356   5.208
   56DPPC   H8Y 7255   2.411   0.323   5.169
   56DPPC   C39 7256   2.376   0.370   5.378
   56DPPC   H9X 7257   2.387   0.479   5.361
   56DPPC   H9Y 7258   2.475   0.330   5.407
   56DPPC  C310 7259   2.281   0.348   5.497
   56DPPC  H10X 7260   2.259   0.240   5.508
   56DPPC  H10Y 7261   2.186   0.402   5.481
   56DPPC  C311 7262   2.340   0.389   5.632
   56DPPC  H11X 7263   2.348   0.499   5.637
   56DPPC  H11Y 7264   2.442   0.346   5.635
   56DPPC  C312 7265   2.261   0.336   5.752
   56DPPC  H12X 7266   2.152   0.348   5.734
   56DPPC  H12Y 7267   2.287   0.397   5.841
   56DPPC  C313 7268   2.292   0.189   5.782
   56DPPC  H13X 7269   2.399   0.168   5.755
   56DPPC  H13Y 7270   2.228   0.123   5.720
   56DPPC  C314 7271   2.276   0.154   5.931
   56DPPC  H14X 7272   2.174   0.181   5.966
   56DPPC  H14Y 7273   2.350   0.214   5.989
   56DPPC  C315 7274   2.302   0.005   5.958
   56DPPC  H15X 7275   2.392  -0.026   5.899
   56DPPC  H15Y 7276   2.216  -0.054   5.920
   56DPPC  C316 7277   2.327  -0.026   6.105
   56DPPC  H16X 7278   2.333  -0.136   6.121
   56DPPC  H16Y 7279   2.248   0.016   6.170
   56DPPC  H16Z 7280   2.423   0.018   6.138
   57DPPC     N 7281   3.996   3.548   4.046
   57DPPC   C13 7282   4.140   3.581   4.027
   57DPPC  H13A 7283   4.195   3.540   4.112
   57DPPC  H13B 7284   4.159   3.687   4.027
   57DPPC  H13C 7285   4.181   3.532   3.939
   57DPPC   C14 7286   3.942   3.627   4.159
   57DPPC  H14A 7287   3.841   3.595   4.183
   57DPPC  H14B 7288   3.948   3.732   4.142
   57DPPC  H14C 7289   4.002   3.600   4.248
   57DPPC   C15 7290   3.919   3.563   3.919
   57DPPC  H15A 7291   3.910   3.664   3.885
   57DPPC  H15B 7292   3.819   3.519   3.929
   57DPPC  H15C 7293   3.966   3.501   3.843
   57DPPC   C12 7294   3.985   3.400   4.085
   57DPPC  H12A 7295   4.005   3.340   3.998
   57DPPC  H12B 7296   3.884   3.380   4.118
   57DPPC   C11 7297   4.077   3.351   4.198
   57DPPC  H11A 7298   4.183   3.358   4.163
   57DPPC  H11B 7299   4.055   3.243   4.218
   57DPPC     P 7300   4.167   3.439   4.423
   57DPPC   O13 7301   4.260   3.326   4.399
   57DPPC   O14 7302   4.106   3.457   4.555
   57DPPC   O11 7303   4.232   3.574   4.372
   57DPPC   O12 7304   4.051   3.426   4.316
   57DPPC    C1 7305   4.359   3.574   4.306
   57DPPC    HA 7306   4.355   3.645   4.221
   57DPPC    HB 7307   4.387   3.475   4.263
   57DPPC    C2 7308   4.476   3.620   4.397
   57DPPC    HS 7309   4.568   3.610   4.336
   57DPPC   O21 7310   4.486   3.536   4.513
   57DPPC   C21 7311   4.603   3.546   4.575
   57DPPC   O22 7312   4.701   3.600   4.529
   57DPPC   C22 7313   4.597   3.474   4.710
   57DPPC   H2R 7314   4.630   3.548   4.786
   57DPPC   H2S 7315   4.669   3.390   4.708
   57DPPC    C3 7316   4.460   3.769   4.440
   57DPPC    HX 7317   4.452   3.827   4.346
   57DPPC    HY 7318   4.552   3.802   4.492
   57DPPC   O31 7319   4.340   3.801   4.512
   57DPPC   C31 7320   4.353   3.795   4.644
   57DPPC   O32 7321   4.456   3.773   4.704
   57DPPC   C32 7322   4.222   3.837   4.710
   57DPPC   H2X 7323   4.192   3.937   4.673
   57DPPC   H2Y 7324   4.245   3.843   4.819
   57DPPC   C23 7325   4.456   3.425   4.751
   57DPPC   H3R 7326   4.425   3.340   4.687
   57DPPC   H3S 7327   4.381   3.506   4.736
   57DPPC   C24 7328   4.453   3.384   4.898
   57DPPC   H4R 7329   4.487   3.468   4.962
   57DPPC   H4S 7330   4.524   3.299   4.912
   57DPPC   C25 7331   4.313   3.340   4.941
   57DPPC   H5R 7332   4.276   3.269   4.865
   57DPPC   H5S 7333   4.243   3.427   4.942
   57DPPC   C26 7334   4.312   3.270   5.078
   57DPPC   H6R 7335   4.403   3.206   5.086
   57DPPC   H6S 7336   4.223   3.204   5.084
   57DPPC   C27 7337   4.308   3.370   5.194
   57DPPC   H7R 7338   4.204   3.409   5.205
   57DPPC   H7S 7339   4.374   3.458   5.170
   57DPPC   C28 7340   4.356   3.310   5.326
   57DPPC   H8R 7341   4.342   3.387   5.405
   57DPPC   H8S 7342   4.465   3.289   5.319
   57DPPC   C29 7343   4.284   3.180   5.366
   57DPPC   H9R 7344   4.302   3.102   5.288
   57DPPC   H9S 7345   4.174   3.198   5.371
   57DPPC  C210 7346   4.334   3.126   5.501
   57DPPC  H10R 7347   4.445   3.123   5.499
   57DPPC  H10S 7348   4.297   3.023   5.516
   57DPPC  C211 7349   4.285   3.213   5.616
   57DPPC  H11R 7350   4.174   3.207   5.616
   57DPPC  H11S 7351   4.312   3.320   5.599
   57DPPC  C212 7352   4.340   3.175   5.754
   57DPPC  H12R 7353   4.450   3.193   5.753
   57DPPC  H12S 7354   4.325   3.067   5.773
   57DPPC  C213 7355   4.277   3.258   5.866
   57DPPC  H13R 7356   4.297   3.365   5.845
   57DPPC  H13S 7357   4.326   3.232   5.963
   57DPPC  C214 7358   4.125   3.240   5.881
   57DPPC  H14R 7359   4.104   3.135   5.907
   57DPPC  H14S 7360   4.073   3.263   5.785
   57DPPC  C215 7361   4.064   3.331   5.988
   57DPPC  H15R 7362   4.128   3.327   6.079
   57DPPC  H15S 7363   3.964   3.290   6.014
   57DPPC  C216 7364   4.046   3.475   5.943
   57DPPC  H16R 7365   4.146   3.522   5.927
   57DPPC  H16S 7366   3.992   3.535   6.020
   57DPPC  H16T 7367   3.989   3.480   5.848
   57DPPC   C33 7368   4.114   3.731   4.684
   57DPPC   H3X 7369   4.159   3.630   4.700
   57DPPC   H3Y 7370   4.081   3.734   4.578
   57DPPC   C34 7371   3.994   3.738   4.778
   57DPPC   H4X 7372   3.918   3.666   4.740
   57DPPC   H4Y 7373   3.949   3.840   4.777
   57DPPC   C35 7374   4.030   3.697   4.921
   57DPPC   H5X 7375   4.097   3.774   4.966
   57DPPC   H5Y 7376   4.087   3.601   4.918
   57DPPC   C36 7377   3.905   3.678   5.007
   57DPPC   H6X 7378   3.843   3.599   4.960
   57DPPC   H6Y 7379   3.848   3.773   5.003
   57DPPC   C37 7380   3.933   3.640   5.153
   57DPPC   H7X 7381   3.999   3.551   5.156
   57DPPC   H7Y 7382   3.836   3.613   5.201
   57DPPC   C38 7383   3.996   3.754   5.235
   57DPPC   H8X 7384   3.936   3.847   5.218
   57DPPC   H8Y 7385   4.099   3.774   5.197
   57DPPC   C39 7386   4.001   3.727   5.386
   57DPPC   H9X 7387   3.897   3.710   5.423
   57DPPC   H9Y 7388   4.039   3.819   5.436
   57DPPC  C310 7389   4.089   3.608   5.424
   57DPPC  H10X 7390   4.193   3.626   5.388
   57DPPC  H10Y 7391   4.052   3.517   5.373
   57DPPC  C311 7392   4.092   3.577   5.576
   57DPPC  H11X 7393   4.155   3.487   5.592
   57DPPC  H11Y 7394   3.989   3.552   5.608
   57DPPC  C312 7395   4.146   3.691   5.665
   57DPPC  H12X 7396   4.134   3.665   5.772
   57DPPC  H12Y 7397   4.084   3.782   5.647
   57DPPC  C313 7398   4.293   3.726   5.640
   57DPPC  H13X 7399   4.314   3.824   5.687
   57DPPC  H13Y 7400   4.306   3.739   5.531
   57DPPC  C314 7401   4.395   3.622   5.690
   57DPPC  H14X 7402   4.469   3.605   5.609
   57DPPC  H14Y 7403   4.344   3.525   5.708
   57DPPC  C315 7404   4.474   3.663   5.816
   57DPPC  H15X 7405   4.447   3.767   5.845
   57DPPC  H15Y 7406   4.583   3.665   5.790
   57DPPC  C316 7407   4.455   3.573   5.938
   57DPPC  H16X 7408   4.484   3.469   5.914
   57DPPC  H16Y 7409   4.350   3.576   5.972
   57DPPC  H16Z 7410   4.519   3.608   6.022
   58DPPC     N 7411   3.609   3.975   4.311
   58DPPC   C13 7412   3.488   3.961   4.399
   58DPPC  H13A 7413   3.420   4.045   4.381
   58DPPC  H13B 7414   3.513   3.967   4.504
   58DPPC  H13C 7415   3.433   3.871   4.381
   58DPPC   C14 7416   3.670   4.110   4.337
   58DPPC  H14A 7417   3.602   4.187   4.299
   58DPPC  H14B 7418   3.762   4.124   4.283
   58DPPC  H14C 7419   3.685   4.131   4.442
   58DPPC   C15 7420   3.709   3.867   4.336
   58DPPC  H15A 7421   3.736   3.859   4.441
   58DPPC  H15B 7422   3.800   3.886   4.281
   58DPPC  H15C 7423   3.670   3.770   4.305
   58DPPC   C12 7424   3.566   3.971   4.164
   58DPPC  H12A 7425   3.540   3.870   4.138
   58DPPC  H12B 7426   3.651   4.000   4.104
   58DPPC   C11 7427   3.451   4.062   4.115
   58DPPC  H11A 7428   3.354   4.021   4.154
   58DPPC  H11B 7429   3.445   4.053   4.004
   58DPPC     P 7430   3.354   4.287   4.204
   58DPPC   O13 7431   3.251   4.303   4.098
   58DPPC   O14 7432   3.405   4.411   4.265
   58DPPC   O11 7433   3.300   4.188   4.317
   58DPPC   O12 7434   3.474   4.199   4.149
   58DPPC    C1 7435   3.228   4.239   4.429
   58DPPC    HA 7436   3.168   4.157   4.472
   58DPPC    HB 7437   3.154   4.317   4.397
   58DPPC    C2 7438   3.317   4.293   4.547
   58DPPC    HS 7439   3.367   4.386   4.511
   58DPPC   O21 7440   3.411   4.193   4.590
   58DPPC   C21 7441   3.522   4.242   4.645
   58DPPC   O22 7442   3.558   4.358   4.643
   58DPPC   C22 7443   3.601   4.130   4.713
   58DPPC   H2R 7444   3.700   4.173   4.741
   58DPPC   H2S 7445   3.618   4.048   4.641
   58DPPC    C3 7446   3.219   4.327   4.663
   58DPPC    HX 7447   3.168   4.233   4.693
   58DPPC    HY 7448   3.142   4.394   4.618
   58DPPC   O31 7449   3.282   4.384   4.780
   58DPPC   C31 7450   3.190   4.437   4.862
   58DPPC   O32 7451   3.074   4.459   4.830
   58DPPC   C32 7452   3.245   4.457   5.002
   58DPPC   H2X 7453   3.159   4.445   5.072
   58DPPC   H2Y 7454   3.281   4.561   5.012
   58DPPC   C23 7455   3.529   4.078   4.839
   58DPPC   H3R 7456   3.433   4.031   4.810
   58DPPC   H3S 7457   3.505   4.164   4.905
   58DPPC   C24 7458   3.613   3.979   4.920
   58DPPC   H4R 7459   3.711   4.026   4.944
   58DPPC   H4S 7460   3.632   3.887   4.861
   58DPPC   C25 7461   3.544   3.942   5.053
   58DPPC   H5R 7462   3.446   3.894   5.033
   58DPPC   H5S 7463   3.526   4.036   5.110
   58DPPC   C26 7464   3.631   3.848   5.139
   58DPPC   H6R 7465   3.727   3.899   5.160
   58DPPC   H6S 7466   3.652   3.756   5.080
   58DPPC   C27 7467   3.569   3.804   5.273
   58DPPC   H7R 7468   3.646   3.748   5.330
   58DPPC   H7S 7469   3.485   3.734   5.252
   58DPPC   C28 7470   3.516   3.919   5.359
   58DPPC   H8R 7471   3.431   3.966   5.305
   58DPPC   H8S 7472   3.595   3.997   5.371
   58DPPC   C29 7473   3.466   3.873   5.496
   58DPPC   H9R 7474   3.434   3.767   5.491
   58DPPC   H9S 7475   3.376   3.933   5.520
   58DPPC  C210 7476   3.567   3.893   5.610
   58DPPC  H10R 7477   3.599   4.000   5.610
   58DPPC  H10S 7478   3.657   3.830   5.594
   58DPPC  C211 7479   3.504   3.862   5.746
   58DPPC  H11R 7480   3.478   3.753   5.751
   58DPPC  H11S 7481   3.408   3.919   5.755
   58DPPC  C212 7482   3.591   3.898   5.867
   58DPPC  H12R 7483   3.618   4.006   5.863
   58DPPC  H12S 7484   3.685   3.839   5.865
   58DPPC  C213 7485   3.516   3.871   5.999
   58DPPC  H13R 7486   3.481   3.765   5.999
   58DPPC  H13S 7487   3.425   3.936   6.002
   58DPPC  C214 7488   3.599   3.896   6.125
   58DPPC  H14R 7489   3.628   4.004   6.128
   58DPPC  H14S 7490   3.693   3.837   6.119
   58DPPC  C215 7491   3.523   3.857   6.252
   58DPPC  H15R 7492   3.501   3.748   6.246
   58DPPC  H15S 7493   3.426   3.911   6.255
   58DPPC  C216 7494   3.600   3.884   6.382
   58DPPC  H16R 7495   3.707   3.856   6.369
   58DPPC  H16S 7496   3.557   3.825   6.466
   58DPPC  H16T 7497   3.597   3.990   6.410
   58DPPC   C33 7498   3.356   4.356   5.039
   58DPPC   H3X 7499   3.442   4.372   4.970
   58DPPC   H3Y 7500   3.321   4.251   5.025
   58DPPC   C34 7501   3.403   4.376   5.183
   58DPPC   H4X 7502   3.390   4.483   5.207
   58DPPC   H4Y 7503   3.512   4.354   5.191
   58DPPC   C35 7504   3.327   4.290   5.285
   58DPPC   H5X 7505   3.367   4.186   5.280
   58DPPC   H5Y 7506   3.219   4.286   5.260
   58DPPC   C36 7507   3.343   4.344   5.427
   58DPPC   H6X 7508   3.275   4.431   5.441
   58DPPC   H6Y 7509   3.448   4.380   5.440
   58DPPC   C37 7510   3.309   4.244   5.537
   58DPPC   H7X 7511   3.371   4.152   5.524
   58DPPC   H7Y 7512   3.202   4.216   5.526
   58DPPC   C38 7513   3.331   4.299   5.679
   58DPPC   H8X 7514   3.293   4.223   5.752
   58DPPC   H8Y 7515   3.271   4.391   5.692
   58DPPC   C39 7516   3.478   4.327   5.711
   58DPPC   H9X 7517   3.517   4.409   5.647
   58DPPC   H9Y 7518   3.537   4.235   5.688
   58DPPC  C310 7519   3.499   4.364   5.858
   58DPPC  H10X 7520   3.606   4.350   5.886
   58DPPC  H10Y 7521   3.439   4.295   5.921
   58DPPC  C311 7522   3.461   4.510   5.889
   58DPPC  H11X 7523   3.389   4.549   5.813
   58DPPC  H11Y 7524   3.553   4.571   5.883
   58DPPC  C312 7525   3.397   4.526   6.027
   58DPPC  H12X 7526   3.445   4.453   6.095
   58DPPC  H12Y 7527   3.291   4.497   6.025
   58DPPC  C313 7528   3.412   4.669   6.082
   58DPPC  H13X 7529   3.345   4.736   6.024
   58DPPC  H13Y 7530   3.516   4.704   6.068
   58DPPC  C314 7531   3.377   4.678   6.231
   58DPPC  H14X 7532   3.445   4.611   6.288
   58DPPC  H14Y 7533   3.275   4.638   6.247
   58DPPC  C315 7534   3.385   4.819   6.290
   58DPPC  H15X 7535   3.462   4.879   6.237
   58DPPC  H15Y 7536   3.417   4.810   6.397
   58DPPC  C316 7537   3.251   4.891   6.288
   58DPPC  H16X 7538   3.226   4.925   6.186
   58DPPC  H16Y 7539   3.253   4.980   6.355
   58DPPC  H16Z 7540   3.169   4.824   6.321
   59DPPC     N 7541   0.096   1.515   4.020
   59DPPC   C13 7542  -0.040   1.466   3.985
   59DPPC  H13A 7543  -0.039   1.364   3.949
   59DPPC  H13B 7544  -0.082   1.526   3.904
   59DPPC  H13C 7545  -0.110   1.476   4.068
   59DPPC   C14 7546   0.180   1.503   3.897
   59DPPC  H14A 7547   0.283   1.535   3.913
   59DPPC  H14B 7548   0.139   1.565   3.818
   59DPPC  H14C 7549   0.182   1.401   3.859
   59DPPC   C15 7550   0.083   1.659   4.057
   59DPPC  H15A 7551   0.025   1.664   4.151
   59DPPC  H15B 7552   0.031   1.715   3.981
   59DPPC  H15C 7553   0.177   1.705   4.080
   59DPPC   C12 7554   0.150   1.433   4.135
   59DPPC  H12A 7555   0.250   1.464   4.159
   59DPPC  H12B 7556   0.149   1.330   4.105
   59DPPC   C11 7557   0.073   1.442   4.268
   59DPPC  H11A 7558   0.113   1.367   4.341
   59DPPC  H11B 7559  -0.035   1.418   4.251
   59DPPC     P 7560  -0.016   1.626   4.424
   59DPPC   O13 7561  -0.147   1.625   4.355
   59DPPC   O14 7562   0.030   1.752   4.486
   59DPPC   O11 7563  -0.009   1.508   4.528
   59DPPC   O12 7564   0.094   1.573   4.322
   59DPPC    C1 7565  -0.125   1.465   4.597
   59DPPC    HA 7566  -0.155   1.366   4.557
   59DPPC    HB 7567  -0.213   1.533   4.586
   59DPPC    C2 7568  -0.091   1.446   4.747
   59DPPC    HS 7569  -0.183   1.415   4.801
   59DPPC   O21 7570  -0.034   1.564   4.805
   59DPPC   C21 7571  -0.102   1.677   4.795
   59DPPC   O22 7572  -0.221   1.686   4.771
   59DPPC   C22 7573  -0.008   1.797   4.824
   59DPPC   H2R 7574  -0.056   1.856   4.904
   59DPPC   H2S 7575  -0.008   1.856   4.730
   59DPPC    C3 7576   0.014   1.334   4.757
   59DPPC    HX 7577   0.114   1.380   4.737
   59DPPC    HY 7578  -0.001   1.261   4.674
   59DPPC   O31 7579   0.017   1.268   4.885
   59DPPC   C31 7580  -0.072   1.170   4.897
   59DPPC   O32 7581  -0.158   1.142   4.817
   59DPPC   C32 7582  -0.051   1.091   5.026
   59DPPC   H2X 7583   0.051   1.051   5.021
   59DPPC   H2Y 7584  -0.123   1.007   5.027
   59DPPC   C23 7585   0.139   1.761   4.862
   59DPPC   H3R 7586   0.201   1.853   4.858
   59DPPC   H3S 7587   0.179   1.692   4.784
   59DPPC   C24 7588   0.150   1.699   5.002
   59DPPC   H4R 7589   0.055   1.644   5.019
   59DPPC   H4S 7590   0.155   1.779   5.079
   59DPPC   C25 7591   0.265   1.598   5.021
   59DPPC   H5R 7592   0.352   1.651   5.066
   59DPPC   H5S 7593   0.295   1.554   4.924
   59DPPC   C26 7594   0.220   1.483   5.114
   59DPPC   H6R 7595   0.139   1.426   5.062
   59DPPC   H6S 7596   0.177   1.531   5.205
   59DPPC   C27 7597   0.328   1.385   5.158
   59DPPC   H7R 7598   0.416   1.443   5.194
   59DPPC   H7S 7599   0.360   1.325   5.070
   59DPPC   C28 7600   0.283   1.290   5.271
   59DPPC   H8R 7601   0.369   1.226   5.300
   59DPPC   H8S 7602   0.204   1.223   5.232
   59DPPC   C29 7603   0.229   1.361   5.398
   59DPPC   H9R 7604   0.134   1.414   5.374
   59DPPC   H9S 7605   0.303   1.437   5.432
   59DPPC  C210 7606   0.200   1.263   5.513
   59DPPC  H10R 7607   0.292   1.206   5.538
   59DPPC  H10S 7608   0.123   1.191   5.477
   59DPPC  C211 7609   0.146   1.331   5.639
   59DPPC  H11R 7610   0.086   1.256   5.695
   59DPPC  H11S 7611   0.078   1.414   5.611
   59DPPC  C212 7612   0.255   1.383   5.735
   59DPPC  H12R 7613   0.301   1.476   5.694
   59DPPC  H12S 7614   0.335   1.306   5.744
   59DPPC  C213 7615   0.193   1.409   5.873
   59DPPC  H13R 7616   0.145   1.315   5.907
   59DPPC  H13S 7617   0.111   1.483   5.861
   59DPPC  C214 7618   0.285   1.461   5.986
   59DPPC  H14R 7619   0.225   1.461   6.079
   59DPPC  H14S 7620   0.305   1.569   5.964
   59DPPC  C215 7621   0.421   1.392   6.013
   59DPPC  H15R 7622   0.495   1.475   6.018
   59DPPC  H15S 7623   0.451   1.326   5.930
   59DPPC  C216 7624   0.439   1.322   6.149
   59DPPC  H16R 7625   0.440   1.212   6.138
   59DPPC  H16S 7626   0.359   1.351   6.220
   59DPPC  H16T 7627   0.536   1.352   6.195
   59DPPC   C33 7628  -0.063   1.177   5.152
   59DPPC   H3X 7629   0.010   1.261   5.147
   59DPPC   H3Y 7630  -0.037   1.116   5.241
   59DPPC   C34 7631  -0.205   1.232   5.168
   59DPPC   H4X 7632  -0.261   1.167   5.239
   59DPPC   H4Y 7633  -0.258   1.225   5.071
   59DPPC   C35 7634  -0.214   1.377   5.216
   59DPPC   H5X 7635  -0.183   1.386   5.322
   59DPPC   H5Y 7636  -0.321   1.401   5.205
   59DPPC   C36 7637  -0.143   1.484   5.132
   59DPPC   H6X 7638  -0.156   1.458   5.024
   59DPPC   H6Y 7639  -0.035   1.484   5.155
   59DPPC   C37 7640  -0.200   1.626   5.154
   59DPPC   H7X 7641  -0.311   1.620   5.146
   59DPPC   H7Y 7642  -0.165   1.694   5.073
   59DPPC   C38 7643  -0.163   1.688   5.290
   59DPPC   H8X 7644  -0.166   1.609   5.368
   59DPPC   H8Y 7645  -0.239   1.764   5.316
   59DPPC   C39 7646  -0.025   1.757   5.289
   59DPPC   H9X 7647  -0.024   1.830   5.205
   59DPPC   H9Y 7648   0.054   1.681   5.270
   59DPPC  C310 7649   0.008   1.830   5.419
   59DPPC  H10X 7650  -0.075   1.901   5.443
   59DPPC  H10Y 7651   0.100   1.891   5.403
   59DPPC  C311 7652   0.032   1.736   5.537
   59DPPC  H11X 7653   0.128   1.682   5.520
   59DPPC  H11Y 7654  -0.048   1.659   5.544
   59DPPC  C312 7655   0.039   1.811   5.670
   59DPPC  H12X 7656   0.104   1.901   5.661
   59DPPC  H12Y 7657   0.088   1.744   5.745
   59DPPC  C313 7658  -0.099   1.850   5.724
   59DPPC  H13X 7659  -0.179   1.816   5.655
   59DPPC  H13Y 7660  -0.108   1.960   5.732
   59DPPC  C314 7661  -0.121   1.786   5.861
   59DPPC  H14X 7662  -0.034   1.811   5.924
   59DPPC  H14Y 7663  -0.121   1.676   5.849
   59DPPC  C315 7664  -0.248   1.829   5.935
   59DPPC  H15X 7665  -0.335   1.827   5.866
   59DPPC  H15Y 7666  -0.234   1.934   5.969
   59DPPC  C316 7667  -0.275   1.738   6.055
   59DPPC  H16X 7668  -0.181   1.702   6.099
   59DPPC  H16Y 7669  -0.336   1.650   6.023
   59DPPC  H16Z 7670  -0.330   1.791   6.136
   60DPPC     N 7671   1.373   4.228   4.267
   60DPPC   C13 7672   1.388   4.080   4.281
   60DPPC  H13A 7673   1.466   4.041   4.216
   60DPPC  H13B 7674   1.295   4.031   4.254
   60DPPC  H13C 7675   1.414   4.054   4.383
   60DPPC   C14 7676   1.490   4.298   4.328
   60DPPC  H14A 7677   1.582   4.261   4.286
   60DPPC  H14B 7678   1.494   4.276   4.435
   60DPPC  H14C 7679   1.487   4.406   4.313
   60DPPC   C15 7680   1.364   4.262   4.122
   60DPPC  H15A 7681   1.283   4.205   4.077
   60DPPC  H15B 7682   1.457   4.247   4.069
   60DPPC  H15C 7683   1.337   4.367   4.110
   60DPPC   C12 7684   1.244   4.277   4.334
   60DPPC  H12A 7685   1.241   4.386   4.327
   60DPPC  H12B 7686   1.247   4.254   4.440
   60DPPC   C11 7687   1.110   4.227   4.273
   60DPPC  H11A 7688   1.026   4.254   4.341
   60DPPC  H11B 7689   1.111   4.117   4.266
   60DPPC     P 7690   1.040   4.427   4.117
   60DPPC   O13 7691   0.906   4.420   4.055
   60DPPC   O14 7692   1.141   4.501   4.041
   60DPPC   O11 7693   1.030   4.485   4.264
   60DPPC   O12 7694   1.091   4.279   4.142
   60DPPC    C1 7695   0.985   4.619   4.281
   60DPPC    HA 7696   0.886   4.635   4.231
   60DPPC    HB 7697   1.058   4.691   4.237
   60DPPC    C2 7698   0.964   4.650   4.432
   60DPPC    HS 7699   0.938   4.758   4.440
   60DPPC   O21 7700   1.075   4.624   4.519
   60DPPC   C21 7701   1.194   4.671   4.488
   60DPPC   O22 7702   1.221   4.744   4.395
   60DPPC   C22 7703   1.299   4.624   4.589
   60DPPC   H2R 7704   1.372   4.707   4.602
   60DPPC   H2S 7705   1.353   4.540   4.542
   60DPPC    C3 7706   0.845   4.569   4.490
   60DPPC    HX 7707   0.867   4.460   4.480
   60DPPC    HY 7708   0.754   4.591   4.430
   60DPPC   O31 7709   0.825   4.612   4.625
   60DPPC   C31 7710   0.878   4.534   4.721
   60DPPC   O32 7711   0.908   4.417   4.707
   60DPPC   C32 7712   0.898   4.620   4.847
   60DPPC   H2X 7713   0.815   4.692   4.855
   60DPPC   H2Y 7714   0.992   4.676   4.831
   60DPPC   C23 7715   1.246   4.580   4.729
   60DPPC   H3R 7716   1.142   4.543   4.723
   60DPPC   H3S 7717   1.247   4.668   4.797
   60DPPC   C24 7718   1.327   4.465   4.792
   60DPPC   H4R 7719   1.337   4.483   4.901
   60DPPC   H4S 7720   1.430   4.469   4.749
   60DPPC   C25 7721   1.264   4.327   4.767
   60DPPC   H5R 7722   1.345   4.254   4.750
   60DPPC   H5S 7723   1.206   4.331   4.672
   60DPPC   C26 7724   1.169   4.273   4.877
   60DPPC   H6R 7725   1.132   4.173   4.845
   60DPPC   H6S 7726   1.080   4.339   4.879
   60DPPC   C27 7727   1.222   4.259   5.022
   60DPPC   H7R 7728   1.262   4.356   5.059
   60DPPC   H7S 7729   1.304   4.185   5.025
   60DPPC   C28 7730   1.109   4.215   5.117
   60DPPC   H8R 7731   1.059   4.125   5.076
   60DPPC   H8S 7732   1.033   4.296   5.119
   60DPPC   C29 7733   1.152   4.183   5.262
   60DPPC   H9R 7734   1.229   4.256   5.296
   60DPPC   H9S 7735   1.198   4.082   5.265
   60DPPC  C210 7736   1.033   4.189   5.360
   60DPPC  H10R 7737   1.058   4.131   5.452
   60DPPC  H10S 7738   0.943   4.142   5.314
   60DPPC  C211 7739   1.002   4.334   5.401
   60DPPC  H11R 7740   0.992   4.396   5.309
   60DPPC  H11S 7741   1.090   4.369   5.457
   60DPPC  C212 7742   0.879   4.358   5.490
   60DPPC  H12R 7743   0.789   4.319   5.440
   60DPPC  H12S 7744   0.866   4.468   5.500
   60DPPC  C213 7745   0.892   4.299   5.631
   60DPPC  H13R 7746   0.986   4.336   5.677
   60DPPC  H13S 7747   0.898   4.188   5.626
   60DPPC  C214 7748   0.773   4.340   5.718
   60DPPC  H14R 7749   0.678   4.306   5.670
   60DPPC  H14S 7750   0.769   4.451   5.724
   60DPPC  C215 7751   0.778   4.283   5.861
   60DPPC  H15R 7752   0.770   4.172   5.856
   60DPPC  H15S 7753   0.687   4.321   5.913
   60DPPC  C216 7754   0.902   4.322   5.941
   60DPPC  H16R 7755   0.893   4.289   6.047
   60DPPC  H16S 7756   0.914   4.432   5.942
   60DPPC  H16T 7757   0.993   4.277   5.898
   60DPPC   C33 7758   0.909   4.545   4.981
   60DPPC   H3X 7759   1.004   4.489   4.986
   60DPPC   H3Y 7760   0.827   4.472   4.991
   60DPPC   C34 7761   0.902   4.644   5.099
   60DPPC   H4X 7762   0.882   4.586   5.192
   60DPPC   H4Y 7763   0.817   4.714   5.083
   60DPPC   C35 7764   1.031   4.725   5.121
   60DPPC   H5X 7765   1.015   4.795   5.206
   60DPPC   H5Y 7766   1.052   4.787   5.031
   60DPPC   C36 7767   1.155   4.638   5.149
   60DPPC   H6X 7768   1.183   4.584   5.056
   60DPPC   H6Y 7769   1.130   4.561   5.226
   60DPPC   C37 7770   1.277   4.718   5.197
   60DPPC   H7X 7771   1.290   4.805   5.128
   60DPPC   H7Y 7772   1.368   4.654   5.185
   60DPPC   C38 7773   1.269   4.766   5.342
   60DPPC   H8X 7774   1.164   4.791   5.371
   60DPPC   H8Y 7775   1.327   4.861   5.349
   60DPPC   C39 7776   1.331   4.667   5.443
   60DPPC   H9X 7777   1.373   4.727   5.526
   60DPPC   H9Y 7778   1.416   4.613   5.396
   60DPPC  C310 7779   1.233   4.568   5.506
   60DPPC  H10X 7780   1.266   4.465   5.481
   60DPPC  H10Y 7781   1.133   4.585   5.460
   60DPPC  C311 7782   1.218   4.580   5.659
   60DPPC  H11X 7783   1.109   4.571   5.681
   60DPPC  H11Y 7784   1.250   4.681   5.693
   60DPPC  C312 7785   1.290   4.470   5.740
   60DPPC  H12X 7786   1.390   4.450   5.696
   60DPPC  H12Y 7787   1.229   4.377   5.728
   60DPPC  C313 7788   1.304   4.500   5.891
   60DPPC  H13X 7789   1.286   4.406   5.948
   60DPPC  H13Y 7790   1.227   4.573   5.920
   60DPPC  C314 7791   1.444   4.550   5.930
   60DPPC  H14X 7792   1.462   4.643   5.872
   60DPPC  H14Y 7793   1.521   4.477   5.899
   60DPPC  C315 7794   1.463   4.588   6.078
   60DPPC  H15X 7795   1.370   4.636   6.116
   60DPPC  H15Y 7796   1.544   4.664   6.082
   60DPPC  C316 7797   1.511   4.479   6.173
   60DPPC  H16X 7798   1.521   4.520   6.276
   60DPPC  H16Y 7799   1.612   4.446   6.141
   60DPPC  H16Z 7800   1.443   4.391   6.176
   61DPPC     N 7801   0.256   1.061   4.037
   61DPPC   C13 7802   0.121   1.071   4.103
   61DPPC  H13A 7803   0.110   1.153   4.171
   61DPPC  H13B 7804   0.111   0.981   4.165
   61DPPC  H13C 7805   0.040   1.071   4.030
   61DPPC   C14 7806   0.258   0.926   3.970
   61DPPC  H14A 7807   0.264   0.849   4.047
   61DPPC  H14B 7808   0.343   0.914   3.903
   61DPPC  H14C 7809   0.168   0.910   3.913
   61DPPC   C15 7810   0.275   1.163   3.933
   61DPPC  H15A 7811   0.189   1.161   3.866
   61DPPC  H15B 7812   0.361   1.139   3.872
   61DPPC  H15C 7813   0.289   1.262   3.973
   61DPPC   C12 7814   0.369   1.059   4.139
   61DPPC  H12A 7815   0.407   1.158   4.158
   61DPPC  H12B 7816   0.451   1.002   4.097
   61DPPC   C11 7817   0.335   0.993   4.274
   61DPPC  H11A 7818   0.271   1.065   4.331
   61DPPC  H11B 7819   0.428   0.980   4.333
   61DPPC     P 7820   0.190   0.801   4.373
   61DPPC   O13 7821   0.075   0.731   4.313
   61DPPC   O14 7822   0.162   0.909   4.469
   61DPPC   O11 7823   0.297   0.702   4.436
   61DPPC   O12 7824   0.269   0.868   4.253
   61DPPC    C1 7825   0.412   0.659   4.364
   61DPPC    HA 7826   0.441   0.724   4.278
   61DPPC    HB 7827   0.389   0.558   4.323
   61DPPC    C2 7828   0.538   0.645   4.454
   61DPPC    HS 7829   0.609   0.577   4.401
   61DPPC   O21 7830   0.492   0.581   4.575
   61DPPC   C21 7831   0.467   0.637   4.691
   61DPPC   O22 7832   0.514   0.740   4.736
   61DPPC   C22 7833   0.382   0.541   4.775
   61DPPC   H2R 7834   0.355   0.456   4.709
   61DPPC   H2S 7835   0.290   0.594   4.805
   61DPPC    C3 7836   0.615   0.783   4.477
   61DPPC    HX 7837   0.653   0.816   4.378
   61DPPC    HY 7838   0.703   0.756   4.539
   61DPPC   O31 7839   0.542   0.893   4.535
   61DPPC   C31 7840   0.621   0.981   4.600
   61DPPC   O32 7841   0.742   0.990   4.585
   61DPPC   C32 7842   0.540   1.067   4.696
   61DPPC   H2X 7843   0.588   1.166   4.706
   61DPPC   H2Y 7844   0.546   1.016   4.795
   61DPPC   C23 7845   0.458   0.486   4.897
   61DPPC   H3R 7846   0.566   0.470   4.874
   61DPPC   H3S 7847   0.414   0.387   4.921
   61DPPC   C24 7848   0.445   0.567   5.026
   61DPPC   H4R 7849   0.337   0.578   5.051
   61DPPC   H4S 7850   0.488   0.669   5.011
   61DPPC   C25 7851   0.512   0.496   5.145
   61DPPC   H5R 7852   0.619   0.476   5.122
   61DPPC   H5S 7853   0.464   0.396   5.157
   61DPPC   C26 7854   0.501   0.574   5.276
   61DPPC   H6R 7855   0.490   0.682   5.254
   61DPPC   H6S 7856   0.594   0.560   5.334
   61DPPC   C27 7857   0.383   0.521   5.357
   61DPPC   H7R 7858   0.404   0.413   5.365
   61DPPC   H7S 7859   0.288   0.534   5.303
   61DPPC   C28 7860   0.368   0.565   5.503
   61DPPC   H8R 7861   0.278   0.513   5.542
   61DPPC   H8S 7862   0.350   0.674   5.511
   61DPPC   C29 7863   0.490   0.526   5.587
   61DPPC   H9R 7864   0.559   0.611   5.583
   61DPPC   H9S 7865   0.546   0.442   5.541
   61DPPC  C210 7866   0.458   0.488   5.733
   61DPPC  H10R 7867   0.545   0.512   5.796
   61DPPC  H10S 7868   0.444   0.379   5.744
   61DPPC  C211 7869   0.339   0.563   5.792
   61DPPC  H11R 7870   0.243   0.518   5.760
   61DPPC  H11S 7871   0.340   0.667   5.754
   61DPPC  C212 7872   0.347   0.568   5.944
   61DPPC  H12R 7873   0.451   0.582   5.978
   61DPPC  H12S 7874   0.312   0.472   5.988
   61DPPC  C213 7875   0.262   0.682   5.996
   61DPPC  H13R 7876   0.164   0.681   5.941
   61DPPC  H13S 7877   0.312   0.779   5.972
   61DPPC  C214 7878   0.237   0.672   6.145
   61DPPC  H14R 7879   0.334   0.679   6.199
   61DPPC  H14S 7880   0.194   0.572   6.167
   61DPPC  C215 7881   0.143   0.782   6.193
   61DPPC  H15R 7882   0.183   0.877   6.155
   61DPPC  H15S 7883   0.147   0.790   6.303
   61DPPC  C216 7884  -0.002   0.766   6.147
   61DPPC  H16R 7885  -0.066   0.846   6.189
   61DPPC  H16S 7886  -0.042   0.668   6.180
   61DPPC  H16T 7887  -0.011   0.771   6.036
   61DPPC   C33 7888   0.393   1.081   4.653
   61DPPC   H3X 7889   0.348   0.980   4.636
   61DPPC   H3Y 7890   0.386   1.136   4.557
   61DPPC   C34 7891   0.305   1.151   4.758
   61DPPC   H4X 7892   0.201   1.151   4.718
   61DPPC   H4Y 7893   0.337   1.256   4.771
   61DPPC   C35 7894   0.303   1.081   4.895
   61DPPC   H5X 7895   0.227   1.132   4.957
   61DPPC   H5Y 7896   0.401   1.095   4.945
   61DPPC   C36 7897   0.273   0.930   4.883
   61DPPC   H6X 7898   0.366   0.882   4.849
   61DPPC   H6Y 7899   0.195   0.912   4.805
   61DPPC   C37 7900   0.231   0.859   5.013
   61DPPC   H7X 7901   0.244   0.750   4.999
   61DPPC   H7Y 7902   0.122   0.872   5.029
   61DPPC   C38 7903   0.305   0.908   5.138
   61DPPC   H8X 7904   0.304   1.019   5.143
   61DPPC   H8Y 7905   0.412   0.877   5.133
   61DPPC   C39 7906   0.240   0.855   5.266
   61DPPC   H9X 7907   0.258   0.746   5.273
   61DPPC   H9Y 7908   0.130   0.870   5.259
   61DPPC  C310 7909   0.288   0.925   5.394
   61DPPC  H10X 7910   0.244   0.873   5.482
   61DPPC  H10Y 7911   0.250   1.029   5.393
   61DPPC  C311 7912   0.441   0.929   5.409
   61DPPC  H11X 7913   0.488   0.985   5.326
   61DPPC  H11Y 7914   0.478   0.825   5.403
   61DPPC  C312 7915   0.487   0.989   5.543
   61DPPC  H12X 7916   0.400   1.005   5.610
   61DPPC  H12Y 7917   0.531   1.089   5.523
   61DPPC  C313 7918   0.591   0.900   5.613
   61DPPC  H13X 7919   0.682   0.958   5.631
   61DPPC  H13Y 7920   0.623   0.818   5.545
   61DPPC  C314 7921   0.544   0.840   5.747
   61DPPC  H14X 7922   0.557   0.730   5.742
   61DPPC  H14Y 7923   0.437   0.861   5.767
   61DPPC  C315 7924   0.630   0.883   5.865
   61DPPC  H15X 7925   0.593   0.982   5.896
   61DPPC  H15Y 7926   0.735   0.892   5.829
   61DPPC  C316 7927   0.630   0.788   5.984
   61DPPC  H16X 7928   0.531   0.791   6.036
   61DPPC  H16Y 7929   0.709   0.817   6.056
   61DPPC  H16Z 7930   0.651   0.684   5.952
   62DPPC     N 7931   0.159   3.995   4.227
   62DPPC   C13 7932   0.166   4.026   4.374
   62DPPC  H13A 7933   0.176   4.132   4.394
   62DPPC  H13B 7934   0.250   3.973   4.420
   62DPPC  H13C 7935   0.076   3.993   4.425
   62DPPC   C14 7936   0.031   4.051   4.176
   62DPPC  H14A 7937   0.023   4.157   4.200
   62DPPC  H14B 7938  -0.055   3.999   4.213
   62DPPC  H14C 7939   0.031   4.052   4.066
   62DPPC   C15 7940   0.269   4.063   4.151
   62DPPC  H15A 7941   0.265   4.170   4.154
   62DPPC  H15B 7942   0.264   4.034   4.046
   62DPPC  H15C 7943   0.366   4.025   4.186
   62DPPC   C12 7944   0.170   3.845   4.199
   62DPPC  H12A 7945   0.174   3.828   4.092
   62DPPC  H12B 7946   0.082   3.794   4.234
   62DPPC   C11 7947   0.292   3.771   4.257
   62DPPC  H11A 7948   0.281   3.661   4.238
   62DPPC  H11B 7949   0.297   3.784   4.368
   62DPPC     P 7950   0.551   3.781   4.240
   62DPPC   O13 7951   0.644   3.878   4.179
   62DPPC   O14 7952   0.573   3.636   4.215
   62DPPC   O11 7953   0.540   3.812   4.394
   62DPPC   O12 7954   0.407   3.820   4.191
   62DPPC    C1 7955   0.519   3.942   4.449
   62DPPC    HA 7956   0.423   3.984   4.412
   62DPPC    HB 7957   0.601   4.011   4.419
   62DPPC    C2 7958   0.515   3.937   4.605
   62DPPC    HS 7959   0.623   3.928   4.633
   62DPPC   O21 7960   0.434   3.826   4.649
   62DPPC   C21 7961   0.493   3.756   4.745
   62DPPC   O22 7962   0.597   3.787   4.800
   62DPPC   C22 7963   0.411   3.632   4.779
   62DPPC   H2R 7964   0.395   3.578   4.683
   62DPPC   H2S 7965   0.315   3.664   4.821
   62DPPC    C3 7966   0.463   4.068   4.671
   62DPPC    HX 7967   0.365   4.096   4.626
   62DPPC    HY 7968   0.535   4.149   4.646
   62DPPC   O31 7969   0.456   4.059   4.815
   62DPPC   C31 7970   0.339   4.018   4.866
   62DPPC   O32 7971   0.237   4.005   4.802
   62DPPC   C32 7972   0.354   4.002   5.017
   62DPPC   H2X 7973   0.364   4.103   5.057
   62DPPC   H2Y 7974   0.449   3.947   5.035
   62DPPC   C23 7975   0.488   3.536   4.875
   62DPPC   H3R 7976   0.588   3.516   4.831
   62DPPC   H3S 7977   0.433   3.440   4.883
   62DPPC   C24 7978   0.510   3.593   5.016
   62DPPC   H4R 7979   0.554   3.694   5.010
   62DPPC   H4S 7980   0.586   3.530   5.068
   62DPPC   C25 7981   0.384   3.602   5.102
   62DPPC   H5R 7982   0.345   3.501   5.128
   62DPPC   H5S 7983   0.304   3.652   5.045
   62DPPC   C26 7984   0.421   3.679   5.229
   62DPPC   H6R 7985   0.451   3.783   5.202
   62DPPC   H6S 7986   0.511   3.631   5.274
   62DPPC   C27 7987   0.310   3.684   5.332
   62DPPC   H7R 7988   0.287   3.581   5.368
   62DPPC   H7S 7989   0.217   3.724   5.286
   62DPPC   C28 7990   0.348   3.773   5.451
   62DPPC   H8R 7991   0.266   3.765   5.524
   62DPPC   H8S 7992   0.358   3.878   5.418
   62DPPC   C29 7993   0.474   3.731   5.528
   62DPPC   H9R 7994   0.500   3.811   5.601
   62DPPC   H9S 7995   0.561   3.718   5.460
   62DPPC  C210 7996   0.446   3.603   5.606
   62DPPC  H10R 7997   0.407   3.524   5.539
   62DPPC  H10S 7998   0.366   3.625   5.681
   62DPPC  C211 7999   0.571   3.551   5.675
   62DPPC  H11R 8000   0.625   3.637   5.720
   62DPPC  H11S 8001   0.638   3.504   5.600
   62DPPC  C212 8002   0.541   3.451   5.786
   62DPPC  H12R 8003   0.638   3.412   5.825
   62DPPC  H12S 8004   0.482   3.364   5.747
   62DPPC  C213 8005   0.466   3.517   5.902
   62DPPC  H13R 8006   0.359   3.531   5.877
   62DPPC  H13S 8007   0.509   3.618   5.921
   62DPPC  C214 8008   0.479   3.434   6.029
   62DPPC  H14R 8009   0.587   3.419   6.052
   62DPPC  H14S 8010   0.433   3.334   6.013
   62DPPC  C215 8011   0.413   3.504   6.147
   62DPPC  H15R 8012   0.304   3.514   6.127
   62DPPC  H15S 8013   0.456   3.605   6.159
   62DPPC  C216 8014   0.434   3.425   6.275
   62DPPC  H16R 8015   0.407   3.319   6.257
   62DPPC  H16S 8016   0.372   3.465   6.357
   62DPPC  H16T 8017   0.540   3.428   6.305
   62DPPC   C33 8018   0.239   3.933   5.096
   62DPPC   H3X 8019   0.275   3.928   5.202
   62DPPC   H3Y 8020   0.224   3.830   5.060
   62DPPC   C34 8021   0.103   4.003   5.097
   62DPPC   H4X 8022   0.054   3.983   5.000
   62DPPC   H4Y 8023   0.116   4.113   5.108
   62DPPC   C35 8024   0.012   3.951   5.211
   62DPPC   H5X 8025   0.027   3.841   5.219
   62DPPC   H5Y 8026  -0.094   3.970   5.186
   62DPPC   C36 8027   0.042   4.017   5.347
   62DPPC   H6X 8028   0.000   4.120   5.348
   62DPPC   H6Y 8029   0.153   4.024   5.356
   62DPPC   C37 8030  -0.011   3.941   5.470
   62DPPC   H7X 8031  -0.033   3.839   5.433
   62DPPC   H7Y 8032  -0.106   3.985   5.506
   62DPPC   C38 8033   0.090   3.926   5.587
   62DPPC   H8X 8034   0.190   3.959   5.554
   62DPPC   H8Y 8035   0.094   3.818   5.612
   62DPPC   C39 8036   0.059   4.000   5.718
   62DPPC   H9X 8037  -0.041   3.967   5.756
   62DPPC   H9Y 8038   0.052   4.108   5.697
   62DPPC  C310 8039   0.162   3.981   5.832
   62DPPC  H10X 8040   0.203   3.878   5.834
   62DPPC  H10Y 8041   0.105   3.994   5.928
   62DPPC  C311 8042   0.276   4.085   5.837
   62DPPC  H11X 8043   0.250   4.173   5.774
   62DPPC  H11Y 8044   0.368   4.040   5.793
   62DPPC  C312 8045   0.303   4.135   5.981
   62DPPC  H12X 8046   0.305   4.048   6.050
   62DPPC  H12Y 8047   0.219   4.201   6.010
   62DPPC  C313 8048   0.435   4.213   5.998
   62DPPC  H13X 8049   0.445   4.286   5.915
   62DPPC  H13Y 8050   0.520   4.141   5.991
   62DPPC  C314 8051   0.444   4.288   6.133
   62DPPC  H14X 8052   0.438   4.214   6.216
   62DPPC  H14Y 8053   0.358   4.357   6.143
   62DPPC  C315 8054   0.574   4.368   6.150
   62DPPC  H15X 8055   0.576   4.449   6.073
   62DPPC  H15Y 8056   0.660   4.300   6.130
   62DPPC  C316 8057   0.593   4.429   6.289
   62DPPC  H16X 8058   0.686   4.489   6.292
   62DPPC  H16Y 8059   0.601   4.350   6.366
   62DPPC  H16Z 8060   0.508   4.495   6.316
   63DPPC     N 8061   4.004   0.280   3.990
   63DPPC   C13 8062   4.082   0.163   4.039
   63DPPC  H13A 8063   4.023   0.073   4.041
   63DPPC  H13B 8064   4.117   0.181   4.141
   63DPPC  H13C 8065   4.169   0.146   3.977
   63DPPC   C14 8066   4.098   0.397   3.990
   63DPPC  H14A 8067   4.053   0.489   3.957
   63DPPC  H14B 8068   4.183   0.380   3.924
   63DPPC  H14C 8069   4.138   0.411   4.090
   63DPPC   C15 8070   3.964   0.251   3.849
   63DPPC  H15A 8071   3.903   0.161   3.844
   63DPPC  H15B 8072   4.053   0.231   3.790
   63DPPC  H15C 8073   3.914   0.335   3.801
   63DPPC   C12 8074   3.884   0.304   4.079
   63DPPC  H12A 8075   3.811   0.225   4.060
   63DPPC  H12B 8076   3.837   0.396   4.048
   63DPPC   C11 8077   3.905   0.313   4.233
   63DPPC  H11A 8078   3.944   0.216   4.272
   63DPPC  H11B 8079   3.805   0.326   4.281
   63DPPC     P 8080   4.130   0.404   4.340
   63DPPC   O13 8081   4.208   0.528   4.325
   63DPPC   O14 8082   4.189   0.279   4.286
   63DPPC   O11 8083   4.092   0.376   4.490
   63DPPC   O12 8084   3.988   0.425   4.269
   63DPPC    C1 8085   3.972   0.413   4.555
   63DPPC    HA 8086   3.898   0.329   4.551
   63DPPC    HB 8087   3.926   0.503   4.509
   63DPPC    C2 8088   4.007   0.443   4.703
   63DPPC    HS 8089   4.118   0.452   4.704
   63DPPC   O21 8090   3.956   0.340   4.791
   63DPPC   C21 8091   4.038   0.315   4.893
   63DPPC   O22 8092   4.152   0.355   4.902
   63DPPC   C22 8093   3.967   0.231   4.998
   63DPPC   H2R 8094   3.936   0.135   4.952
   63DPPC   H2S 8095   3.877   0.288   5.029
   63DPPC    C3 8096   3.952   0.580   4.751
   63DPPC    HX 8097   3.841   0.570   4.761
   63DPPC    HY 8098   3.970   0.655   4.670
   63DPPC   O31 8099   4.008   0.619   4.878
   63DPPC   C31 8100   4.121   0.691   4.867
   63DPPC   O32 8101   4.170   0.725   4.761
   63DPPC   C32 8102   4.173   0.733   5.004
   63DPPC   H2X 8103   4.085   0.738   5.071
   63DPPC   H2Y 8104   4.213   0.836   4.993
   63DPPC   C23 8105   4.061   0.208   5.117
   63DPPC   H3R 8106   4.105   0.305   5.152
   63DPPC   H3S 8107   4.148   0.146   5.083
   63DPPC   C24 8108   3.996   0.138   5.236
   63DPPC   H4R 8109   4.079   0.111   5.304
   63DPPC   H4S 8110   3.950   0.042   5.203
   63DPPC   C25 8111   3.890   0.220   5.314
   63DPPC   H5R 8112   3.889   0.183   5.419
   63DPPC   H5S 8113   3.790   0.199   5.274
   63DPPC   C26 8114   3.910   0.373   5.313
   63DPPC   H6R 8115   3.901   0.410   5.209
   63DPPC   H6S 8116   4.013   0.397   5.348
   63DPPC   C27 8117   3.808   0.452   5.397
   63DPPC   H7R 8118   3.708   0.439   5.352
   63DPPC   H7S 8119   3.832   0.560   5.388
   63DPPC   C28 8120   3.803   0.413   5.546
   63DPPC   H8R 8121   3.768   0.308   5.556
   63DPPC   H8S 8122   3.729   0.478   5.597
   63DPPC   C29 8123   3.939   0.429   5.615
   63DPPC   H9R 8124   4.013   0.362   5.566
   63DPPC   H9S 8125   3.932   0.395   5.719
   63DPPC  C210 8126   3.991   0.573   5.608
   63DPPC  H10R 8127   3.906   0.643   5.621
   63DPPC  H10S 8128   4.030   0.587   5.505
   63DPPC  C211 8129   4.102   0.609   5.706
   63DPPC  H11R 8130   4.169   0.681   5.654
   63DPPC  H11S 8131   4.163   0.520   5.733
   63DPPC  C212 8132   4.053   0.680   5.833
   63DPPC  H12R 8133   4.030   0.604   5.911
   63DPPC  H12S 8134   3.960   0.737   5.812
   63DPPC  C213 8135   4.158   0.777   5.887
   63DPPC  H13R 8136   4.169   0.861   5.814
   63DPPC  H13S 8137   4.256   0.726   5.893
   63DPPC  C214 8138   4.121   0.831   6.026
   63DPPC  H14R 8139   4.195   0.798   6.101
   63DPPC  H14S 8140   4.023   0.789   6.057
   63DPPC  C215 8141   4.110   0.984   6.030
   63DPPC  H15R 8142   4.102   1.024   5.927
   63DPPC  H15S 8143   4.205   1.022   6.074
   63DPPC  C216 8144   3.991   1.035   6.111
   63DPPC  H16R 8145   3.896   0.996   6.069
   63DPPC  H16S 8146   3.986   1.146   6.109
   63DPPC  H16T 8147   3.998   1.002   6.217
   63DPPC   C33 8148   4.281   0.641   5.066
   63DPPC   H3X 8149   4.380   0.659   5.019
   63DPPC   H3Y 8150   4.255   0.534   5.048
   63DPPC   C34 8151   4.287   0.665   5.217
   63DPPC   H4X 8152   4.184   0.643   5.256
   63DPPC   H4Y 8153   4.306   0.773   5.237
   63DPPC   C35 8154   4.387   0.581   5.299
   63DPPC   H5X 8155   4.489   0.625   5.291
   63DPPC   H5Y 8156   4.391   0.478   5.258
   63DPPC   C36 8157   4.341   0.577   5.445
   63DPPC   H6X 8158   4.240   0.530   5.448
   63DPPC   H6Y 8159   4.329   0.682   5.480
   63DPPC   C37 8160   4.431   0.503   5.546
   63DPPC   H7X 8161   4.383   0.509   5.646
   63DPPC   H7Y 8162   4.528   0.558   5.554
   63DPPC   C38 8163   4.462   0.356   5.516
   63DPPC   H8X 8164   4.521   0.314   5.601
   63DPPC   H8Y 8165   4.527   0.353   5.426
   63DPPC   C39 8166   4.342   0.263   5.490
   63DPPC   H9X 8167   4.383   0.166   5.453
   63DPPC   H9Y 8168   4.278   0.304   5.409
   63DPPC  C310 8169   4.255   0.229   5.612
   63DPPC  H10X 8170   4.205   0.321   5.650
   63DPPC  H10Y 8171   4.320   0.191   5.694
   63DPPC  C311 8172   4.150   0.123   5.574
   63DPPC  H11X 8173   4.203   0.036   5.529
   63DPPC  H11Y 8174   4.086   0.168   5.496
   63DPPC  C312 8175   4.057   0.071   5.685
   63DPPC  H12X 8176   3.995  -0.010   5.640
   63DPPC  H12Y 8177   3.988   0.151   5.719
   63DPPC  C313 8178   4.134   0.013   5.804
   63DPPC  H13X 8179   4.240   0.004   5.774
   63DPPC  H13Y 8180   4.097  -0.090   5.828
   63DPPC  C314 8181   4.126   0.099   5.929
   63DPPC  H14X 8182   4.137   0.206   5.902
   63DPPC  H14Y 8183   4.211   0.073   5.996
   63DPPC  C315 8184   3.996   0.076   6.005
   63DPPC  H15X 8185   3.989  -0.032   6.034
   63DPPC  H15Y 8186   3.909   0.098   5.940
   63DPPC  C316 8187   3.990   0.161   6.130
   63DPPC  H16X 8188   3.909   0.130   6.197
   63DPPC  H16Y 8189   3.975   0.268   6.103
   63DPPC  H16Z 8190   4.083   0.151   6.189
   64DPPC     N 8191   0.414  -0.085   4.324
   64DPPC   C13 8192   0.492  -0.090   4.195
   64DPPC  H13A 8193   0.458  -0.005   4.134
   64DPPC  H13B 8194   0.466  -0.177   4.136
   64DPPC  H13C 8195   0.599  -0.087   4.208
   64DPPC   C14 8196   0.455  -0.194   4.417
   64DPPC  H14A 8197   0.557  -0.181   4.452
   64DPPC  H14B 8198   0.452  -0.290   4.367
   64DPPC  H14C 8199   0.389  -0.195   4.503
   64DPPC   C15 8200   0.441   0.048   4.386
   64DPPC  H15A 8201   0.539   0.054   4.431
   64DPPC  H15B 8202   0.364   0.074   4.458
   64DPPC  H15C 8203   0.433   0.125   4.310
   64DPPC   C12 8204   0.266  -0.096   4.292
   64DPPC  H12A 8205   0.210  -0.046   4.372
   64DPPC  H12B 8206   0.236  -0.200   4.293
   64DPPC   C11 8207   0.216  -0.033   4.159
   64DPPC  H11A 8208   0.104  -0.036   4.157
   64DPPC  H11B 8209   0.250  -0.095   4.074
   64DPPC     P 8210   0.195   0.222   4.211
   64DPPC   O13 8211   0.077   0.252   4.128
   64DPPC   O14 8212   0.299   0.326   4.230
   64DPPC   O11 8213   0.153   0.153   4.349
   64DPPC   O12 8214   0.266   0.099   4.142
   64DPPC    C1 8215   0.062   0.225   4.432
   64DPPC    HA 8216  -0.031   0.250   4.375
   64DPPC    HB 8217   0.106   0.320   4.467
   64DPPC    C2 8218   0.018   0.136   4.552
   64DPPC    HS 8219  -0.055   0.193   4.613
   64DPPC   O21 8220   0.130   0.093   4.634
   64DPPC   C21 8221   0.186   0.192   4.702
   64DPPC   O22 8222   0.158   0.310   4.696
   64DPPC   C22 8223   0.290   0.136   4.798
   64DPPC   H2R 8224   0.255   0.039   4.837
   64DPPC   H2S 8225   0.295   0.208   4.883
   64DPPC    C3 8226  -0.057   0.011   4.496
   64DPPC    HX 8227  -0.002  -0.027   4.407
   64DPPC    HY 8228  -0.155   0.049   4.459
   64DPPC   O31 8229  -0.079  -0.092   4.595
   64DPPC   C31 8230   0.012  -0.188   4.602
   64DPPC   O32 8231   0.108  -0.202   4.526
   64DPPC   C32 8232  -0.027  -0.283   4.715
   64DPPC   H2X 8233   0.012  -0.384   4.691
   64DPPC   H2Y 8234  -0.138  -0.288   4.721
   64DPPC   C23 8235   0.428   0.123   4.732
   64DPPC   H3R 8236   0.443   0.202   4.655
   64DPPC   H3S 8237   0.434   0.024   4.681
   64DPPC   C24 8238   0.545   0.137   4.831
   64DPPC   H4R 8239   0.551   0.241   4.867
   64DPPC   H4S 8240   0.637   0.116   4.775
   64DPPC   C25 8241   0.540   0.046   4.955
   64DPPC   H5R 8242   0.442   0.057   5.006
   64DPPC   H5S 8243   0.618   0.080   5.027
   64DPPC   C26 8244   0.566  -0.102   4.924
   64DPPC   H6R 8245   0.672  -0.119   4.898
   64DPPC   H6S 8246   0.506  -0.132   4.835
   64DPPC   C27 8247   0.525  -0.195   5.039
   64DPPC   H7R 8248   0.553  -0.299   5.008
   64DPPC   H7S 8249   0.415  -0.189   5.050
   64DPPC   C28 8250   0.587  -0.170   5.177
   64DPPC   H8R 8251   0.551  -0.073   5.219
   64DPPC   H8S 8252   0.698  -0.161   5.164
   64DPPC   C29 8253   0.561  -0.285   5.277
   64DPPC   H9R 8254   0.623  -0.270   5.368
   64DPPC   H9S 8255   0.595  -0.380   5.229
   64DPPC  C210 8256   0.415  -0.305   5.325
   64DPPC  H10R 8257   0.409  -0.402   5.380
   64DPPC  H10S 8258   0.347  -0.310   5.239
   64DPPC  C211 8259   0.360  -0.197   5.419
   64DPPC  H11R 8260   0.372  -0.102   5.362
   64DPPC  H11S 8261   0.421  -0.192   5.511
   64DPPC  C212 8262   0.212  -0.223   5.453
   64DPPC  H12R 8263   0.207  -0.314   5.517
   64DPPC  H12S 8264   0.161  -0.243   5.357
   64DPPC  C213 8265   0.130  -0.111   5.521
   64DPPC  H13R 8266   0.104  -0.038   5.442
   64DPPC  H13S 8267   0.194  -0.061   5.597
   64DPPC  C214 8268  -0.003  -0.152   5.588
   64DPPC  H14R 8269  -0.025  -0.257   5.565
   64DPPC  H14S 8270  -0.085  -0.092   5.543
   64DPPC  C215 8271  -0.001  -0.124   5.740
   64DPPC  H15R 8272  -0.017  -0.014   5.753
   64DPPC  H15S 8273   0.100  -0.146   5.779
   64DPPC  C216 8274  -0.103  -0.200   5.826
   64DPPC  H16R 8275  -0.069  -0.303   5.849
   64DPPC  H16S 8276  -0.201  -0.208   5.774
   64DPPC  H16T 8277  -0.118  -0.148   5.923
   64DPPC   C33 8278   0.029  -0.238   4.852
   64DPPC   H3X 8279   0.141  -0.240   4.852
   64DPPC   H3Y 8280  -0.005  -0.312   4.928
   64DPPC   C34 8281  -0.020  -0.100   4.897
   64DPPC   H4X 8282  -0.131  -0.099   4.899
   64DPPC   H4Y 8283   0.013  -0.024   4.823
   64DPPC   C35 8284   0.034  -0.060   5.034
   64DPPC   H5X 8285   0.145  -0.075   5.034
   64DPPC   H5Y 8286  -0.009  -0.126   5.113
   64DPPC   C36 8287   0.002   0.087   5.065
   64DPPC   H6X 8288  -0.108   0.101   5.064
   64DPPC   H6Y 8289   0.044   0.150   4.983
   64DPPC   C37 8290   0.059   0.136   5.199
   64DPPC   H7X 8291   0.012   0.079   5.282
   64DPPC   H7Y 8292   0.030   0.243   5.211
   64DPPC   C38 8293   0.211   0.125   5.206
   64DPPC   H8X 8294   0.252   0.156   5.107
   64DPPC   H8Y 8295   0.242   0.019   5.222
   64DPPC   C39 8296   0.275   0.215   5.312
   64DPPC   H9X 8297   0.227   0.315   5.307
   64DPPC   H9Y 8298   0.383   0.224   5.285
   64DPPC  C310 8299   0.267   0.159   5.454
   64DPPC  H10X 8300   0.295   0.054   5.440
   64DPPC  H10Y 8301   0.164   0.163   5.493
   64DPPC  C311 8302   0.367   0.211   5.559
   64DPPC  H11X 8303   0.313   0.282   5.625
   64DPPC  H11Y 8304   0.447   0.265   5.505
   64DPPC  C312 8305   0.438   0.100   5.640
   64DPPC  H12X 8306   0.548   0.118   5.633
   64DPPC  H12Y 8307   0.421   0.002   5.591
   64DPPC  C313 8308   0.405   0.084   5.790
   64DPPC  H13X 8309   0.466   0.157   5.848
   64DPPC  H13Y 8310   0.439  -0.017   5.820
   64DPPC  C314 8311   0.257   0.100   5.830
   64DPPC  H14X 8312   0.226   0.012   5.892
   64DPPC  H14Y 8313   0.192   0.104   5.741
   64DPPC  C315 8314   0.237   0.227   5.914
   64DPPC  H15X 8315   0.281   0.310   5.854
   64DPPC  H15Y 8316   0.297   0.218   6.007
   64DPPC  C316 8317   0.092   0.264   5.946
   64DPPC  H16X 8318   0.043   0.186   6.008
   64DPPC  H16Y 8319   0.035   0.277   5.852
   64DPPC  H16Z 8320   0.090   0.360   6.002
   65TIP3   OH2 8321   1.235   0.992   8.803
   65TIP3    H1 8322   1.237   1.088   8.824
   65TIP3    H2 8323   1.145   0.984   8.770
   66TIP3   OH2 8324   1.082   0.892   9.147
   66TIP3    H1 8325   1.093   0.871   9.242
   66TIP3    H2 8326   1.015   0.827   9.117
   67TIP3   OH2 8327   0.315   0.858   9.282
   67TIP3    H1 8328   0.292   0.784   9.342
   67TIP3    H2 8329   0.378   0.909   9.336
   68TIP3   OH2 8330   1.427   1.206   9.043
   68TIP3    H1 8331   1.412   1.128   9.098
   68TIP3    H2 8332   1.468   1.265   9.107
   69TIP3   OH2 8333   0.400   1.342   9.153
   69TIP3    H1 8334   0.363   1.260   9.114
   69TIP3    H2 8335   0.495   1.320   9.142
   70TIP3   OH2 8336   0.077   0.646   8.690
   70TIP3    H1 8337   0.070   0.740   8.667
   70TIP3    H2 8338   0.019   0.638   8.768
   71TIP3   OH2 8339   0.060   0.883   8.969
   71TIP3    H1 8340   0.114   0.802   8.981
   71TIP3    H2 8341   0.123   0.945   8.930
   72TIP3   OH2 8342   1.164   1.746   9.022
   72TIP3    H1 8343   1.222   1.681   8.974
   72TIP3    H2 8344   1.121   1.685   9.083
   73TIP3   OH2 8345   0.904   1.223   9.229
   73TIP3    H1 8346   0.938   1.176   9.151
   73TIP3    H2 8347   0.987   1.225   9.283
   74TIP3   OH2 8348   1.767   0.295   9.286
   74TIP3    H1 8349   1.774   0.365   9.355
   74TIP3    H2 8350   1.849   0.311   9.237
   75TIP3   OH2 8351   1.277   0.617   9.270
   75TIP3    H1 8352   1.301   0.530   9.306
   75TIP3    H2 8353   1.276   0.601   9.173
   76TIP3   OH2 8354   0.568   0.394   8.927
   76TIP3    H1 8355   0.585   0.480   8.882
   76TIP3    H2 8356   0.517   0.350   8.856
   77TIP3   OH2 8357   1.346   0.387   8.829
   77TIP3    H1 8358   1.386   0.370   8.917
   77TIP3    H2 8359   1.398   0.466   8.807
   78TIP3   OH2 8360   0.224   0.670   9.007
   78TIP3    H1 8361   0.288   0.634   9.072
   78TIP3    H2 8362   0.255   0.623   8.928
   79TIP3   OH2 8363   0.662   0.816   8.965
   79TIP3    H1 8364   0.751   0.781   8.974
   79TIP3    H2 8365   0.623   0.749   8.905
   80TIP3   OH2 8366   1.803   0.455   9.501
   80TIP3    H1 8367   1.752   0.530   9.464
   80TIP3    H2 8368   1.773   0.456   9.594
   81TIP3   OH2 8369   0.506   0.334   9.369
   81TIP3    H1 8370   0.459   0.386   9.301
   81TIP3    H2 8371   0.441   0.337   9.442
   82TIP3   OH2 8372   1.146   1.262   8.698
   82TIP3    H1 8373   1.145   1.268   8.601
   82TIP3    H2 8374   1.109   1.350   8.721
   83TIP3   OH2 8375   0.682   1.114   9.343
   83TIP3    H1 8376   0.625   1.189   9.371
   83TIP3    H2 8377   0.756   1.163   9.300
   84TIP3   OH2 8378   1.508   0.408   9.054
   84TIP3    H1 8379   1.531   0.314   9.076
   84TIP3    H2 8380   1.568   0.455   9.116
   85TIP3   OH2 8381   0.404   0.501   9.131
   85TIP3    H1 8382   0.472   0.554   9.177
   85TIP3    H2 8383   0.458   0.463   9.057
   86TIP3   OH2 8384   0.559   1.341   9.446
   86TIP3    H1 8385   0.536   1.402   9.375
   86TIP3    H2 8386   0.473   1.330   9.493
   87TIP3   OH2 8387   0.095   1.244   8.532
   87TIP3    H1 8388   0.120   1.273   8.441
   87TIP3    H2 8389   0.163   1.282   8.589
   88TIP3   OH2 8390   1.496   1.383   9.264
   88TIP3    H1 8391   1.402   1.411   9.260
   88TIP3    H2 8392   1.537   1.453   9.210
   89TIP3   OH2 8393   1.530   0.192   9.377
   89TIP3    H1 8394   1.449   0.194   9.320
   89TIP3    H2 8395   1.600   0.212   9.310
   90TIP3   OH2 8396   0.769   0.088   9.070
   90TIP3    H1 8397   0.810   0.014   9.117
   90TIP3    H2 8398   0.700   0.115   9.135
   91TIP3   OH2 8399   1.322   1.581   8.876
   91TIP3    H1 8400   1.340   1.497   8.829
   91TIP3    H2 8401   1.407   1.630   8.862
   92TIP3   OH2 8402   1.436   1.337   8.725
   92TIP3    H1 8403   1.417   1.267   8.657
   92TIP3    H2 8404   1.425   1.288   8.809
   93TIP3   OH2 8405   1.618   1.235   9.609
   93TIP3    H1 8406   1.634   1.164   9.543
   93TIP3    H2 8407   1.616   1.313   9.549
   94TIP3   OH2 8408   1.058   0.904   8.560
   94TIP3    H1 8409   1.007   0.988   8.554
   94TIP3    H2 8410   1.146   0.936   8.538
   95TIP3   OH2 8411   1.800   0.886   9.386
   95TIP3    H1 8412   1.737   0.959   9.376
   95TIP3    H2 8413   1.871   0.914   9.324
   96TIP3   OH2 8414   1.432   0.876   8.671
   96TIP3    H1 8415   1.365   0.924   8.726
   96TIP3    H2 8416   1.492   0.841   8.742
   97TIP3   OH2 8417   1.398   0.754   9.555
   97TIP3    H1 8418   1.393   0.848   9.582
   97TIP3    H2 8419   1.324   0.754   9.492
   98TIP3   OH2 8420   0.547   1.015   8.836
   98TIP3    H1 8421   0.518   0.971   8.753
   98TIP3    H2 8422   0.596   0.943   8.882
   99TIP3   OH2 8423   0.684   1.315   9.092
   99TIP3    H1 8424   0.691   1.326   8.996
   99TIP3    H2 8425   0.773   1.285   9.118
  100TIP3   OH2 8426   0.580   0.904   9.200
  100TIP3    H1 8427   0.610   0.890   9.107
  100TIP3    H2 8428   0.642   0.971   9.235
  101TIP3   OH2 8429   1.238   1.450   9.280
  101TIP3    H1 8430   1.220   1.509   9.355
  101TIP3    H2 8431   1.202   1.364   9.311
  102TIP3   OH2 8432   0.707   1.327   9.668
  102TIP3    H1 8433   0.643   1.385   9.716
  102TIP3    H2 8434   0.662   1.321   9.581
  103TIP3   OH2 8435   1.328   0.822   8.432
  103TIP3    H1 8436   1.356   0.849   8.523
  103TIP3    H2 8437   1.353   0.898   8.378
  104TIP3   OH2 8438   0.398   0.982   9.502
  104TIP3    H1 8439   0.403   1.078   9.490
  104TIP3    H2 8440   0.338   0.974   9.578
  105TIP3   OH2 8441   1.027   1.516   8.720
  105TIP3    H1 8442   1.037   1.573   8.797
  105TIP3    H2 8443   1.016   1.580   8.648
  106TIP3   OH2 8444   0.536   1.503   9.776
  106TIP3    H1 8445   0.537   1.554   9.692
  106TIP3    H2 8446   0.439   1.490   9.790
  107TIP3   OH2 8447   1.693   0.017   8.510
  107TIP3    H1 8448   1.602   0.046   8.527
  107TIP3    H2 8449   1.705   0.047   8.419
  108TIP3   OH2 8450   0.460   0.889   8.609
  108TIP3    H1 8451   0.416   0.967   8.566
  108TIP3    H2 8452   0.407   0.816   8.574
  109TIP3   OH2 8453   0.113   1.147   9.543
  109TIP3    H1 8454   0.043   1.127   9.477
  109TIP3    H2 8455   0.119   1.057   9.584
  110TIP3   OH2 8456   0.119   1.419   9.203
  110TIP3    H1 8457   0.207   1.378   9.193
  110TIP3    H2 8458   0.142   1.486   9.272
  111TIP3   OH2 8459   1.860   1.483   9.776
  111TIP3    H1 8460   1.848   1.387   9.792
  111TIP3    H2 8461   1.768   1.512   9.797
  112TIP3   OH2 8462   0.963   1.450   9.675
  112TIP3    H1 8463   0.968   1.536   9.720
  112TIP3    H2 8464   0.871   1.420   9.687
  113TIP3   OH2 8465   1.012   1.785   8.641
  113TIP3    H1 8466   1.027   1.792   8.547
  113TIP3    H2 8467   0.995   1.879   8.665
  114TIP3   OH2 8468   0.382   1.679   8.828
  114TIP3    H1 8469   0.417   1.652   8.916
  114TIP3    H2 8470   0.314   1.610   8.816
  115TIP3   OH2 8471   1.333   1.689   8.323
  115TIP3    H1 8472   1.299   1.600   8.340
  115TIP3    H2 8473   1.337   1.726   8.412
  116TIP3   OH2 8474   1.288   1.716   8.626
  116TIP3    H1 8475   1.198   1.713   8.661
  116TIP3    H2 8476   1.336   1.666   8.694
  117TIP3   OH2 8477   1.544   0.638   9.777
  117TIP3    H1 8478   1.499   0.687   9.705
  117TIP3    H2 8479   1.559   0.553   9.731
  118TIP3   OH2 8480   0.327   1.302   9.575
  118TIP3    H1 8481   0.331   1.270   9.667
  118TIP3    H2 8482   0.238   1.264   9.554
  119TIP3   OH2 8483   0.579   0.115   9.244
  119TIP3    H1 8484   0.505   0.126   9.179
  119TIP3    H2 8485   0.559   0.191   9.304
  120TIP3   OH2 8486   1.068   0.128   9.547
  120TIP3    H1 8487   1.088   0.080   9.629
  120TIP3    H2 8488   0.982   0.089   9.525
  121TIP3   OH2 8489   1.314   0.413   9.617
  121TIP3    H1 8490   1.247   0.431   9.687
  121TIP3    H2 8491   1.368   0.493   9.622
  122TIP3   OH2 8492   0.989   0.351   8.291
  122TIP3    H1 8493   0.942   0.307   8.364
  122TIP3    H2 8494   1.011   0.277   8.233
  123TIP3   OH2 8495   0.568   0.644   9.307
  123TIP3    H1 8496   0.481   0.638   9.353
  123TIP3    H2 8497   0.566   0.737   9.275
  124TIP3   OH2 8498   0.574   0.629   8.792
  124TIP3    H1 8499   0.476   0.634   8.787
  124TIP3    H2 8500   0.594   0.590   8.705
  125TIP3   OH2 8501   1.133   0.629   8.645
  125TIP3    H1 8502   1.117   0.724   8.631
  125TIP3    H2 8503   1.212   0.612   8.590
  126TIP3   OH2 8504   1.007   0.754   9.810
  126TIP3    H1 8505   0.959   0.678   9.848
  126TIP3    H2 8506   1.088   0.752   9.864
  127TIP3   OH2 8507   1.234   0.641   8.997
  127TIP3    H1 8508   1.184   0.713   8.957
  127TIP3    H2 8509   1.248   0.583   8.920
  128TIP3   OH2 8510   0.321   0.625   9.422
  128TIP3    H1 8511   0.327   0.673   9.507
  128TIP3    H2 8512   0.300   0.535   9.453
  129TIP3   OH2 8513   0.032   0.412   8.904
  129TIP3    H1 8514   0.081   0.385   8.986
  129TIP3    H2 8515   0.061   0.344   8.841
  130TIP3   OH2 8516   0.171   0.327   8.482
  130TIP3    H1 8517   0.260   0.336   8.443
  130TIP3    H2 8518   0.123   0.393   8.429
  131TIP3   OH2 8519   1.139   0.807   9.392
  131TIP3    H1 8520   1.195   0.739   9.349
  131TIP3    H2 8521   1.082   0.753   9.452
  132TIP3   OH2 8522   0.864   0.392   8.897
  132TIP3    H1 8523   0.774   0.358   8.913
  132TIP3    H2 8524   0.906   0.370   8.982
  133TIP3   OH2 8525   0.314   0.568   8.769
  133TIP3    H1 8526   0.227   0.590   8.728
  133TIP3    H2 8527   0.338   0.482   8.727
  134TIP3   OH2 8528   0.647   0.578   8.530
  134TIP3    H1 8529   0.733   0.561   8.575
  134TIP3    H2 8530   0.645   0.674   8.527
  135TIP3   OH2 8531   1.293   0.242   9.263
  135TIP3    H1 8532   1.228   0.249   9.335
  135TIP3    H2 8533   1.249   0.287   9.190
  136TIP3   OH2 8534   1.542   1.889   9.878
  136TIP3    H1 8535   1.587   1.925   9.799
  136TIP3    H2 8536   1.616   1.885   9.940
  137TIP3   OH2 8537   0.340   1.140   9.811
  137TIP3    H1 8538   0.422   1.145   9.864
  137TIP3    H2 8539   0.284   1.085   9.867
  138TIP3   OH2 8540   0.926   0.663   9.093
  138TIP3    H1 8541   1.003   0.606   9.082
  138TIP3    H2 8542   0.873   0.609   9.157
  139TIP3   OH2 8543   0.430   0.322   8.701
  139TIP3    H1 8544   0.396   0.240   8.743
  139TIP3    H2 8545   0.458   0.287   8.614
  140TIP3   OH2 8546   0.822   0.539   9.306
  140TIP3    H1 8547   0.736   0.584   9.322
  140TIP3    H2 8548   0.878   0.580   9.375
  141TIP3   OH2 8549   0.897   1.126   8.566
  141TIP3    H1 8550   0.819   1.073   8.552
  141TIP3    H2 8551   0.866   1.177   8.646
  142TIP3   OH2 8552   1.619   1.096   9.386
  142TIP3    H1 8553   1.664   1.142   9.311
  142TIP3    H2 8554   1.531   1.079   9.347
  143TIP3   OH2 8555   1.020   1.187   9.615
  143TIP3    H1 8556   0.971   1.129   9.674
  143TIP3    H2 8557   0.999   1.276   9.652
  144TIP3   OH2 8558   1.361   0.547   8.488
  144TIP3    H1 8559   1.421   0.571   8.562
  144TIP3    H2 8560   1.344   0.634   8.447
  145TIP3   OH2 8561   0.378   1.095   9.053
  145TIP3    H1 8562   0.435   1.063   8.980
  145TIP3    H2 8563   0.390   1.025   9.119
  146TIP3   OH2 8564   1.085   1.275   8.418
  146TIP3    H1 8565   1.049   1.366   8.416
  146TIP3    H2 8566   1.009   1.220   8.444
  147TIP3   OH2 8567   0.139   0.899   9.640
  147TIP3    H1 8568   0.184   0.873   9.724
  147TIP3    H2 8569   0.056   0.847   9.645
  148TIP3   OH2 8570   0.723   0.894   9.778
  148TIP3    H1 8571   0.665   0.869   9.704
  148TIP3    H2 8572   0.794   0.828   9.765
  149TIP3   OH2 8573   1.276   1.392   9.671
  149TIP3    H1 8574   1.202   1.424   9.617
  149TIP3    H2 8575   1.251   1.431   9.757
  150TIP3   OH2 8576   1.848   1.205   9.760
  150TIP3    H1 8577   1.759   1.226   9.722
  150TIP3    H2 8578   1.898   1.185   9.677
  151TIP3   OH2 8579   1.636   1.438   8.530
  151TIP3    H1 8580   1.583   1.400   8.603
  151TIP3    H2 8581   1.580   1.414   8.454
  152TIP3   OH2 8582   1.420   0.978   9.220
  152TIP3    H1 8583   1.331   0.940   9.216
  152TIP3    H2 8584   1.468   0.912   9.165
  153TIP3   OH2 8585   0.587   1.400   8.839
  153TIP3    H1 8586   0.615   1.480   8.789
  153TIP3    H2 8587   0.493   1.397   8.814
  154TIP3   OH2 8588   0.742   1.204   8.762
  154TIP3    H1 8589   0.685   1.281   8.781
  154TIP3    H2 8590   0.694   1.133   8.808
  155TIP3   OH2 8591   0.835   1.606   9.466
  155TIP3    H1 8592   0.899   1.672   9.431
  155TIP3    H2 8593   0.889   1.562   9.534
  156TIP3   OH2 8594   0.608   1.637   8.695
  156TIP3    H1 8595   0.519   1.656   8.731
  156TIP3    H2 8596   0.657   1.714   8.733
  157TIP3   OH2 8597   1.135   1.200   9.357
  157TIP3    H1 8598   1.105   1.190   9.452
  157TIP3    H2 8599   1.171   1.112   9.341
  158TIP3   OH2 8600   1.412   1.337   8.346
  158TIP3    H1 8601   1.381   1.271   8.409
  158TIP3    H2 8602   1.382   1.292   8.264
  159TIP3   OH2 8603   1.456   1.636   9.618
  159TIP3    H1 8604   1.366   1.598   9.613
  159TIP3    H2 8605   1.454   1.703   9.546
  160TIP3   OH2 8606   0.295   0.376   9.542
  160TIP3    H1 8607   0.241   0.413   9.615
  160TIP3    H2 8608   0.262   0.284   9.542
  161TIP3   OH2 8609   1.477   1.127   8.559
  161TIP3    H1 8610   1.464   1.035   8.590
  161TIP3    H2 8611   1.575   1.132   8.561
  162TIP3   OH2 8612   0.240   1.568   9.394
  162TIP3    H1 8613   0.302   1.498   9.423
  162TIP3    H2 8614   0.217   1.612   9.477
  163TIP3   OH2 8615   0.674   1.336   8.400
  163TIP3    H1 8616   0.762   1.298   8.402
  163TIP3    H2 8617   0.691   1.432   8.410
  164TIP3   OH2 8618   0.340   1.095   8.482
  164TIP3    H1 8619   0.244   1.113   8.488
  164TIP3    H2 8620   0.370   1.157   8.415
  165TIP3   OH2 8621   1.084   0.393   9.480
  165TIP3    H1 8622   1.175   0.402   9.515
  165TIP3    H2 8623   1.068   0.299   9.500
  166TIP3   OH2 8624   1.268   0.306   8.578
  166TIP3    H1 8625   1.267   0.381   8.515
  166TIP3    H2 8626   1.300   0.351   8.659
  167TIP3   OH2 8627   0.978   1.526   8.387
  167TIP3    H1 8628   0.892   1.555   8.426
  167TIP3    H2 8629   0.951   1.511   8.294
  168TIP3   OH2 8630   0.871   0.536   8.664
  168TIP3    H1 8631   0.958   0.580   8.671
  168TIP3    H2 8632   0.869   0.484   8.747
  169TIP3   OH2 8633   0.994   0.645   9.547
  169TIP3    H1 8634   1.007   0.668   9.642
  169TIP3    H2 8635   1.014   0.548   9.539
  170TIP3   OH2 8636   1.024   0.240   8.726
  170TIP3    H1 8637   0.993   0.287   8.806
  170TIP3    H2 8638   1.092   0.300   8.692
  171TIP3   OH2 8639   0.725   1.597   8.457
  171TIP3    H1 8640   0.697   1.660   8.389
  171TIP3    H2 8641   0.678   1.628   8.538
  172TIP3   OH2 8642   0.526   0.323   8.446
  172TIP3    H1 8643   0.535   0.418   8.465
  172TIP3    H2 8644   0.620   0.296   8.448
  173TIP3   OH2 8645   1.581   0.400   9.649
  173TIP3    H1 8646   1.501   0.356   9.684
  173TIP3    H2 8647   1.581   0.361   9.559
  174TIP3   OH2 8648   1.486   0.764   9.040
  174TIP3    H1 8649   1.403   0.713   9.039
  174TIP3    H2 8650   1.549   0.702   9.085
  175TIP3   OH2 8651   0.437   1.373   8.258
  175TIP3    H1 8652   0.520   1.331   8.293
  175TIP3    H2 8653   0.483   1.439   8.202
  176TIP3   OH2 8654   1.525   1.674   9.211
  176TIP3    H1 8655   1.515   1.731   9.132
  176TIP3    H2 8656   1.622   1.657   9.209
  177TIP3   OH2 8657   0.359   0.116   9.098
  177TIP3    H1 8658   0.344   0.147   9.007
  177TIP3    H2 8659   0.314   0.029   9.089
  178TIP3   OH2 8660   0.208   1.499   8.740
  178TIP3    H1 8661   0.117   1.483   8.712
  178TIP3    H2 8662   0.243   1.540   8.658
  179TIP3   OH2 8663   0.146   1.750   9.828
  179TIP3    H1 8664   0.203   1.738   9.906
  179TIP3    H2 8665   0.068   1.700   9.856
  180TIP3   OH2 8666   0.590   1.670   9.976
  180TIP3    H1 8667   0.668   1.624  10.010
  180TIP3    H2 8668   0.567   1.614   9.898
  181TIP3   OH2 8669   1.223   1.536   9.892
  181TIP3    H1 8670   1.189   1.451   9.930
  181TIP3    H2 8671   1.307   1.545   9.941
  182TIP3   OH2 8672   0.069   1.166   9.941
  182TIP3    H1 8673   0.075   1.075   9.907
  182TIP3    H2 8674   0.052   1.218   9.859
  183TIP3   OH2 8675   0.789   1.142   9.842
  183TIP3    H1 8676   0.761   1.201   9.769
  183TIP3    H2 8677   0.754   1.053   9.814
  184TIP3   OH2 8678   1.353   1.129   9.626
  184TIP3    H1 8679   1.438   1.177   9.620
  184TIP3    H2 8680   1.299   1.204   9.661
  185TIP3   OH2 8681   0.247   0.851   9.882
  185TIP3    H1 8682   0.250   0.755   9.902
  185TIP3    H2 8683   0.242   0.890   9.973
  186TIP3   OH2 8684   0.562   0.782   9.555
  186TIP3    H1 8685   0.495   0.849   9.530
  186TIP3    H2 8686   0.641   0.821   9.511
  187TIP3   OH2 8687   1.148   1.058   9.937
  187TIP3    H1 8688   1.197   1.014   9.865
  187TIP3    H2 8689   1.121   0.982   9.992
  188TIP3   OH2 8690   0.673   0.563   9.664
  188TIP3    H1 8691   0.695   0.496   9.596
  188TIP3    H2 8692   0.637   0.636   9.609
  189TIP3   OH2 8693   0.749   0.351   9.489
  189TIP3    H1 8694   0.813   0.381   9.422
  189TIP3    H2 8695   0.666   0.351   9.437
  190TIP3   OH2 8696   0.785   0.911   9.482
  190TIP3    H1 8697   0.876   0.908   9.450
  190TIP3    H2 8698   0.751   0.993   9.438
  191TIP3   OH2 8699   1.228   0.671   9.992
  191TIP3    H1 8700   1.250   0.579   9.968
  191TIP3    H2 8701   1.317   0.708  10.002
  192TIP3   OH2 8702   1.411   0.966   9.835
  192TIP3    H1 8703   1.381   1.012   9.754
  192TIP3    H2 8704   1.505   0.954   9.815
  193TIP3   OH2 8705   0.456   0.587   9.895
  193TIP3    H1 8706   0.391   0.514   9.888
  193TIP3    H2 8707   0.488   0.597   9.804
  194TIP3   OH2 8708   0.780   0.071   9.523
  194TIP3    H1 8709   0.773   0.169   9.532
  194TIP3    H2 8710   0.695   0.046   9.487
  195TIP3   OH2 8711   0.856   0.541   9.889
  195TIP3    H1 8712   0.797   0.516   9.963
  195TIP3    H2 8713   0.796   0.525   9.813
  196TIP3   OH2 8714   1.150   0.434   9.827
  196TIP3    H1 8715   1.056   0.446   9.847
  196TIP3    H2 8716   1.184   0.390   9.907
  197TIP3   OH2 8717   1.367   0.352   9.999
  197TIP3    H1 8718   1.353   0.257   9.972
  197TIP3    H2 8719   1.323   0.353  10.087
  198TIP3   OH2 8720   0.269   0.384   9.918
  198TIP3    H1 8721   0.254   0.299   9.870
  198TIP3    H2 8722   0.256   0.355  10.011
  199TIP3   OH2 8723   0.771   4.487   9.788
  199TIP3    H1 8724   0.865   4.462   9.801
  199TIP3    H2 8725   0.772   4.502   9.692
  200TIP3   OH2 8726   0.801   0.200  10.050
  200TIP3    H1 8727   0.818   0.138   9.977
  200TIP3    H2 8728   0.749   0.272  10.008
  201TIP3   OH2 8729   0.172   1.302   8.279
  201TIP3    H1 8730   0.260   1.344   8.282
  201TIP3    H2 8731   0.176   1.278   8.185
  202TIP3   OH2 8732   0.074   1.920   8.793
  202TIP3    H1 8733  -0.016   1.945   8.770
  202TIP3    H2 8734   0.058   1.847   8.856
  203TIP3   OH2 8735   0.079   1.674   8.950
  203TIP3    H1 8736   0.112   1.585   8.926
  203TIP3    H2 8737   0.144   1.699   9.019
  204TIP3   OH2 8738   1.799   1.688   9.215
  204TIP3    H1 8739   1.844   1.714   9.297
  204TIP3    H2 8740   1.785   1.772   9.170
  205TIP3   OH2 8741   1.787   1.704   9.514
  205TIP3    H1 8742   1.751   1.619   9.477
  205TIP3    H2 8743   1.821   1.673   9.600
  206TIP3   OH2 8744   1.676   1.257  10.071
  206TIP3    H1 8745   1.585   1.275  10.105
  206TIP3    H2 8746   1.728   1.331  10.112
  207TIP3   OH2 8747   1.748   1.098   8.555
  207TIP3    H1 8748   1.833   1.148   8.558
  207TIP3    H2 8749   1.772   1.017   8.606
  208TIP3   OH2 8750   1.826   0.882   8.698
  208TIP3    H1 8751   1.743   0.850   8.743
  208TIP3    H2 8752   1.876   0.906   8.779
  209TIP3   OH2 8753   1.777   1.194   9.197
  209TIP3    H1 8754   1.848   1.126   9.189
  209TIP3    H2 8755   1.826   1.276   9.175
  210TIP3   OH2 8756   1.645   1.482   9.465
  210TIP3    H1 8757   1.576   1.533   9.511
  210TIP3    H2 8758   1.591   1.439   9.395
  211TIP3   OH2 8759   1.625   0.773   8.823
  211TIP3    H1 8760   1.587   0.683   8.826
  211TIP3    H2 8761   1.593   0.803   8.912
  212TIP3   OH2 8762   0.116   1.023   9.196
  212TIP3    H1 8763   0.082   0.979   9.116
  212TIP3    H2 8764   0.193   0.968   9.219
  213TIP3   OH2 8765   1.714   0.972   9.772
  213TIP3    H1 8766   1.764   0.886   9.773
  213TIP3    H2 8767   1.784   1.039   9.763
  214TIP3   OH2 8768   1.795   0.722   9.801
  214TIP3    H1 8769   1.701   0.689   9.802
  214TIP3    H2 8770   1.848   0.643   9.825
  215TIP3   OH2 8771   1.529   0.560   8.705
  215TIP3    H1 8772   1.559   0.466   8.701
  215TIP3    H2 8773   1.607   0.607   8.673
  216TIP3   OH2 8774   1.660   0.606   9.175
  216TIP3    H1 8775   1.758   0.615   9.169
  216TIP3    H2 8776   1.651   0.608   9.272
  217TIP3   OH2 8777   1.635   0.657   9.443
  217TIP3    H1 8778   1.544   0.686   9.462
  217TIP3    H2 8779   1.682   0.743   9.429
  218TIP3   OH2 8780   0.094   0.569   9.823
  218TIP3    H1 8781   0.146   0.495   9.861
  218TIP3    H2 8782   0.008   0.527   9.804
  219TIP3   OH2 8783   1.879   0.039   9.981
  219TIP3    H1 8784   1.888  -0.021   9.906
  219TIP3    H2 8785   1.854   0.121   9.934
  220TIP3   OH2 8786   1.641   0.315   8.700
  220TIP3    H1 8787   1.680   0.264   8.776
  220TIP3    H2 8788   1.576   0.251   8.667
  221TIP3   OH2 8789   0.166   0.305   9.097
  221TIP3    H1 8790   0.226   0.235   9.130
  221TIP3    H2 8791   0.205   0.386   9.133
  222TIP3   OH2 8792   0.046   0.638   9.230
  222TIP3    H1 8793   0.115   0.649   9.162
  222TIP3    H2 8794   0.001   0.724   9.228
  223TIP3   OH2 8795   1.845   0.268   9.822
  223TIP3    H1 8796   1.763   0.300   9.866
  223TIP3    H2 8797   1.802   0.218   9.751
  224TIP3   OH2 8798   0.011   0.252   8.684
  224TIP3    H1 8799  -0.051   0.328   8.682
  224TIP3    H2 8800   0.083   0.287   8.627
  225TIP3   OH2 8801   1.506   1.759   8.825
  225TIP3    H1 8802   1.569   1.736   8.752
  225TIP3    H2 8803   1.559   1.816   8.885
  226TIP3   OH2 8804   0.060   0.087   9.467
  226TIP3    H1 8805  -0.025   0.042   9.458
  226TIP3    H2 8806   0.043   0.170   9.419
  227TIP3   OH2 8807   0.274   1.448   9.835
  227TIP3    H1 8808   0.199   1.415   9.782
  227TIP3    H2 8809   0.250   1.425   9.925
  228TIP3   OH2 8810   0.576   1.619   9.537
  228TIP3    H1 8811   0.551   1.696   9.483
  228TIP3    H2 8812   0.671   1.610   9.515
  229TIP3   OH2 8813   0.958   1.731   9.744
  229TIP3    H1 8814   0.967   1.704   9.838
  229TIP3    H2 8815   1.047   1.768   9.728
  230TIP3   OH2 8816   1.188   1.871   9.704
  230TIP3    H1 8817   1.268   1.840   9.660
  230TIP3    H2 8818   1.219   1.890   9.795
  231TIP3   OH2 8819   1.713   0.066   9.653
  231TIP3    H1 8820   1.646   0.122   9.611
  231TIP3    H2 8821   1.717  -0.002   9.583
  232TIP3   OH2 8822   0.308   1.897   9.501
  232TIP3    H1 8823   0.226   1.949   9.480
  232TIP3    H2 8824   0.292   1.879   9.594
  233TIP3   OH2 8825   0.536   1.828   9.380
  233TIP3    H1 8826   0.447   1.852   9.416
  233TIP3    H2 8827   0.542   1.882   9.299
  234TIP3   OH2 8828   0.977   1.796   9.317
  234TIP3    H1 8829   0.903   1.845   9.274
  234TIP3    H2 8830   1.011   1.868   9.375
  235TIP3   OH2 8831   1.192   1.673   9.442
  235TIP3    H1 8832   1.118   1.700   9.383
  235TIP3    H2 8833   1.261   1.737   9.415
  236TIP3   OH2 8834   1.454   1.825   9.419
  236TIP3    H1 8835   1.467   1.915   9.387
  236TIP3    H2 8836   1.483   1.774   9.340
  237TIP3   OH2 8837   0.256   1.737   9.166
  237TIP3    H1 8838   0.234   1.707   9.257
  237TIP3    H2 8839   0.346   1.697   9.156
  238TIP3   OH2 8840   0.463   1.597   9.070
  238TIP3    H1 8841   0.437   1.505   9.093
  238TIP3    H2 8842   0.547   1.602   9.122
  239TIP3   OH2 8843   0.690   1.604   9.205
  239TIP3    H1 8844   0.749   1.535   9.169
  239TIP3    H2 8845   0.721   1.609   9.298
  240TIP3   OH2 8846   1.014   0.198   9.080
  240TIP3    H1 8847   0.921   0.168   9.081
  240TIP3    H2 8848   1.058   0.120   9.117
  241TIP3   OH2 8849   1.539   0.131   9.083
  241TIP3    H1 8850   1.592   0.111   9.005
  241TIP3    H2 8851   1.449   0.113   9.047
  242TIP3   OH2 8852   1.753   0.181   8.908
  242TIP3    H1 8853   1.800   0.111   8.956
  242TIP3    H2 8854   1.796   0.262   8.945
  243TIP3   OH2 8855   0.331   0.099   8.830
  243TIP3    H1 8856   0.272   0.028   8.797
  243TIP3    H2 8857   0.405   0.046   8.866
  244TIP3   OH2 8858   0.178   0.052   8.405
  244TIP3    H1 8859   0.196   0.080   8.312
  244TIP3    H2 8860   0.154   0.138   8.443
  245TIP3   OH2 8861   0.769   0.054   8.796
  245TIP3    H1 8862   0.848   0.108   8.785
  245TIP3    H2 8863   0.756   0.060   8.892
  246TIP3   OH2 8864   1.330   0.076   8.924
  246TIP3    H1 8865   1.284   0.134   8.862
  246TIP3    H2 8866   1.259   0.012   8.946
  247TIP3   OH2 8867   1.439   0.098   8.598
  247TIP3    H1 8868   1.366   0.164   8.589
  247TIP3    H2 8869   1.424   0.064   8.687
  248TIP3   OH2 8870   0.192   1.678   8.500
  248TIP3    H1 8871   0.098   1.663   8.475
  248TIP3    H2 8872   0.210   1.759   8.451
  249TIP3   OH2 8873   0.843   0.295   8.515
  249TIP3    H1 8874   0.894   0.253   8.587
  249TIP3    H2 8875   0.856   0.388   8.541
  250TIP3   OH2 8876   1.671   1.688   8.629
  250TIP3    H1 8877   1.672   1.598   8.587
  250TIP3    H2 8878   1.650   1.744   8.553
  251TIP3   OH2 8879   0.266   0.151   9.784
  251TIP3    H1 8880   0.223   0.065   9.791
  251TIP3    H2 8881   0.344   0.141   9.843
  252TIP3   OH2 8882   0.470   0.103   9.959
  252TIP3    H1 8883   0.563   0.129   9.951
  252TIP3    H2 8884   0.480   0.005   9.949
  253TIP3   OH2 8885   0.300   1.759   8.261
  253TIP3    H1 8886   0.291   1.687   8.326
  253TIP3    H2 8887   0.358   1.717   8.196
  254TIP3   OH2 8888   1.349   0.087   9.922
  254TIP3    H1 8889   1.302   0.022   9.979
  254TIP3    H2 8890   1.428   0.034   9.899
  255TIP3   OH2 8891   1.627   1.605   9.828
  255TIP3    H1 8892   1.554   1.594   9.762
  255TIP3    H2 8893   1.617   1.699   9.848
  256TIP3   OH2 8894   3.112   1.005   8.809
  256TIP3    H1 8895   3.104   1.096   8.843
  256TIP3    H2 8896   3.037   1.002   8.748
  257TIP3   OH2 8897   2.986   0.907   9.173
  257TIP3    H1 8898   2.990   0.882   9.268
  257TIP3    H2 8899   2.920   0.843   9.140
  258TIP3   OH2 8900   2.175   0.883   9.310
  258TIP3    H1 8901   2.165   0.812   9.376
  258TIP3    H2 8902   2.272   0.894   9.307
  259TIP3   OH2 8903   3.297   1.183   9.007
  259TIP3    H1 8904   3.300   1.114   9.074
  259TIP3    H2 8905   3.320   1.261   9.061
  260TIP3   OH2 8906   2.291   1.342   9.182
  260TIP3    H1 8907   2.254   1.264   9.135
  260TIP3    H2 8908   2.387   1.326   9.161
  261TIP3   OH2 8909   1.937   0.598   8.646
  261TIP3    H1 8910   1.933   0.695   8.660
  261TIP3    H2 8911   1.876   0.570   8.716
  262TIP3   OH2 8912   1.968   0.896   8.942
  262TIP3    H1 8913   2.021   0.814   8.959
  262TIP3    H2 8914   2.035   0.959   8.913
  263TIP3   OH2 8915   3.051   1.730   9.004
  263TIP3    H1 8916   3.113   1.671   8.955
  263TIP3    H2 8917   3.014   1.661   9.062
  264TIP3   OH2 8918   2.763   1.217   9.242
  264TIP3    H1 8919   2.803   1.155   9.179
  264TIP3    H2 8920   2.844   1.234   9.296
  265TIP3   OH2 8921   3.649   0.300   9.284
  265TIP3    H1 8922   3.646   0.365   9.357
  265TIP3    H2 8923   3.729   0.330   9.237
  266TIP3   OH2 8924   3.150   0.631   9.281
  266TIP3    H1 8925   3.173   0.543   9.315
  266TIP3    H2 8926   3.125   0.610   9.188
  267TIP3   OH2 8927   2.430   0.386   8.913
  267TIP3    H1 8928   2.449   0.473   8.872
  267TIP3    H2 8929   2.380   0.339   8.844
  268TIP3   OH2 8930   3.170   0.429   8.841
  268TIP3    H1 8931   3.238   0.396   8.904
  268TIP3    H2 8932   3.224   0.483   8.781
  269TIP3   OH2 8933   2.085   0.667   9.016
  269TIP3    H1 8934   2.146   0.633   9.084
  269TIP3    H2 8935   2.122   0.621   8.938
  270TIP3   OH2 8936   2.565   0.845   8.992
  270TIP3    H1 8937   2.649   0.807   9.021
  270TIP3    H2 8938   2.525   0.765   8.951
  271TIP3   OH2 8939   3.675   0.453   9.511
  271TIP3    H1 8940   3.636   0.534   9.471
  271TIP3    H2 8941   3.669   0.471   9.606
  272TIP3   OH2 8942   2.363   0.315   9.348
  272TIP3    H1 8943   2.306   0.366   9.289
  272TIP3    H2 8944   2.309   0.320   9.430
  273TIP3   OH2 8945   3.015   1.251   8.725
  273TIP3    H1 8946   2.998   1.245   8.631
  273TIP3    H2 8947   3.028   1.345   8.741
  274TIP3   OH2 8948   2.541   1.108   9.341
  274TIP3    H1 8949   2.478   1.179   9.371
  274TIP3    H2 8950   2.614   1.163   9.305
  275TIP3   OH2 8951   3.359   0.401   9.031
  275TIP3    H1 8952   3.383   0.322   9.086
  275TIP3    H2 8953   3.436   0.459   9.049
  276TIP3   OH2 8954   2.274   0.504   9.132
  276TIP3    H1 8955   2.345   0.553   9.180
  276TIP3    H2 8956   2.328   0.467   9.059
  277TIP3   OH2 8957   2.409   1.315   9.453
  277TIP3    H1 8958   2.375   1.362   9.375
  277TIP3    H2 8959   2.325   1.304   9.505
  278TIP3   OH2 8960   1.990   1.217   8.530
  278TIP3    H1 8961   2.053   1.252   8.465
  278TIP3    H2 8962   1.993   1.289   8.598
  279TIP3   OH2 8963   3.332   1.396   9.176
  279TIP3    H1 8964   3.236   1.406   9.188
  279TIP3    H2 8965   3.357   1.490   9.179
  280TIP3   OH2 8966   3.397   0.223   9.359
  280TIP3    H1 8967   3.317   0.204   9.305
  280TIP3    H2 8968   3.466   0.233   9.289
  281TIP3   OH2 8969   2.654   0.116   9.060
  281TIP3    H1 8970   2.706   0.050   9.111
  281TIP3    H2 8971   2.570   0.119   9.113
  282TIP3   OH2 8972   3.226   1.565   8.904
  282TIP3    H1 8973   3.236   1.498   8.834
  282TIP3    H2 8974   3.298   1.628   8.879
  283TIP3   OH2 8975   3.300   1.368   8.734
  283TIP3    H1 8976   3.319   1.298   8.667
  283TIP3    H2 8977   3.285   1.312   8.813
  284TIP3   OH2 8978   3.476   1.224   9.612
  284TIP3    H1 8979   3.511   1.158   9.548
  284TIP3    H2 8980   3.486   1.305   9.557
  285TIP3   OH2 8981   2.920   0.940   8.578
  285TIP3    H1 8982   2.865   1.013   8.542
  285TIP3    H2 8983   2.993   0.936   8.512
  286TIP3   OH2 8984   3.685   0.875   9.388
  286TIP3    H1 8985   3.616   0.943   9.370
  286TIP3    H2 8986   3.754   0.907   9.326
  287TIP3   OH2 8987   3.306   0.881   8.667
  287TIP3    H1 8988   3.239   0.927   8.723
  287TIP3    H2 8989   3.369   0.851   8.735
  288TIP3   OH2 8990   3.265   0.767   9.573
  288TIP3    H1 8991   3.253   0.862   9.592
  288TIP3    H2 8992   3.196   0.757   9.506
  289TIP3   OH2 8993   2.390   1.005   8.824
  289TIP3    H1 8994   2.440   1.033   8.747
  289TIP3    H2 8995   2.456   0.954   8.875
  290TIP3   OH2 8996   2.557   1.322   9.106
  290TIP3    H1 8997   2.567   1.305   9.011
  290TIP3    H2 8998   2.642   1.292   9.144
  291TIP3   OH2 8999   2.444   0.892   9.227
  291TIP3    H1 9000   2.491   0.893   9.141
  291TIP3    H2 9001   2.494   0.961   9.277
  292TIP3   OH2 9002   3.093   1.462   9.291
  292TIP3    H1 9003   3.098   1.540   9.350
  292TIP3    H2 9004   3.047   1.395   9.347
  293TIP3   OH2 9005   2.575   1.332   9.664
  293TIP3    H1 9006   2.504   1.377   9.716
  293TIP3    H2 9007   2.526   1.320   9.579
  294TIP3   OH2 9008   3.153   0.884   8.450
  294TIP3    H1 9009   3.215   0.872   8.525
  294TIP3    H2 9010   3.213   0.923   8.382
  295TIP3   OH2 9011   2.267   0.930   9.619
  295TIP3    H1 9012   2.252   1.025   9.621
  295TIP3    H2 9013   2.183   0.894   9.652
  296TIP3   OH2 9014   2.947   1.579   8.727
  296TIP3    H1 9015   2.895   1.582   8.808
  296TIP3    H2 9016   2.917   1.660   8.682
  297TIP3   OH2 9017   2.388   1.488   9.776
  297TIP3    H1 9018   2.378   1.538   9.692
  297TIP3    H2 9019   2.294   1.468   9.797
  298TIP3   OH2 9020   3.564   0.127   8.505
  298TIP3    H1 9021   3.476   0.106   8.470
  298TIP3    H2 9022   3.606   0.185   8.438
  299TIP3   OH2 9023   2.315   0.912   8.546
  299TIP3    H1 9024   2.269   0.969   8.610
  299TIP3    H2 9025   2.313   0.825   8.588
  300TIP3   OH2 9026   3.684   1.513   8.270
  300TIP3    H1 9027   3.634   1.500   8.187
  300TIP3    H2 9028   3.759   1.452   8.263
  301TIP3   OH2 9029   1.972   1.133   9.531
  301TIP3    H1 9030   1.910   1.129   9.457
  301TIP3    H2 9031   2.014   1.046   9.524
  302TIP3   OH2 9032   1.978   1.413   9.163
  302TIP3    H1 9033   2.061   1.363   9.166
  302TIP3    H2 9034   1.995   1.481   9.231
  303TIP3   OH2 9035   3.748   1.475   9.787
  303TIP3    H1 9036   3.730   1.388   9.749
  303TIP3    H2 9037   3.661   1.493   9.829
  304TIP3   OH2 9038   2.827   1.434   9.657
  304TIP3    H1 9039   2.829   1.516   9.711
  304TIP3    H2 9040   2.733   1.407   9.659
  305TIP3   OH2 9041   2.877   1.787   8.542
  305TIP3    H1 9042   2.867   1.800   8.444
  305TIP3    H2 9043   2.896   1.878   8.570
  306TIP3   OH2 9044   2.247   1.670   8.822
  306TIP3    H1 9045   2.291   1.637   8.904
  306TIP3    H2 9046   2.155   1.646   8.844
  307TIP3   OH2 9047   3.150   1.740   8.563
  307TIP3    H1 9048   3.053   1.742   8.548
  307TIP3    H2 9049   3.159   1.673   8.633
  308TIP3   OH2 9050   3.428   0.649   9.776
  308TIP3    H1 9051   3.385   0.700   9.704
  308TIP3    H2 9052   3.436   0.560   9.735
  309TIP3   OH2 9053   2.189   1.289   9.595
  309TIP3    H1 9054   2.187   1.266   9.691
  309TIP3    H2 9055   2.106   1.244   9.567
  310TIP3   OH2 9056   2.447   0.095   9.223
  310TIP3    H1 9057   2.360   0.093   9.175
  310TIP3    H2 9058   2.434   0.173   9.282
  311TIP3   OH2 9059   2.908   0.181   9.589
  311TIP3    H1 9060   2.952   0.118   9.648
  311TIP3    H2 9061   2.836   0.126   9.553
  312TIP3   OH2 9062   3.216   0.406   9.625
  312TIP3    H1 9063   3.166   0.401   9.710
  312TIP3    H2 9064   3.237   0.500   9.624
  313TIP3   OH2 9065   3.309   0.979   8.243
  313TIP3    H1 9066   3.247   0.932   8.183
  313TIP3    H2 9067   3.332   1.055   8.186
  314TIP3   OH2 9068   2.457   0.634   9.291
  314TIP3    H1 9069   2.389   0.635   9.361
  314TIP3    H2 9070   2.458   0.729   9.268
  315TIP3   OH2 9071   2.451   0.652   8.847
  315TIP3    H1 9072   2.357   0.648   8.819
  315TIP3    H2 9073   2.495   0.653   8.759
  316TIP3   OH2 9074   3.007   0.678   8.633
  316TIP3    H1 9075   2.973   0.771   8.630
  316TIP3    H2 9076   3.095   0.691   8.596
  317TIP3   OH2 9077   2.896   0.742   9.814
  317TIP3    H1 9078   2.851   0.663   9.852
  317TIP3    H2 9079   2.976   0.743   9.870
  318TIP3   OH2 9080   3.088   0.621   9.019
  318TIP3    H1 9081   3.072   0.704   8.971
  318TIP3    H2 9082   3.109   0.560   8.946
  319TIP3   OH2 9083   2.207   0.621   9.419
  319TIP3    H1 9084   2.249   0.667   9.494
  319TIP3    H2 9085   2.167   0.543   9.461
  320TIP3   OH2 9086   1.936   0.384   8.922
  320TIP3    H1 9087   1.993   0.368   9.000
  320TIP3    H2 9088   1.990   0.356   8.848
  321TIP3   OH2 9089   3.010   0.814   9.416
  321TIP3    H1 9090   3.063   0.749   9.363
  321TIP3    H2 9091   2.957   0.753   9.473
  322TIP3   OH2 9092   2.749   0.401   8.898
  322TIP3    H1 9093   2.656   0.374   8.910
  322TIP3    H2 9094   2.791   0.374   8.981
  323TIP3   OH2 9095   2.188   0.574   8.776
  323TIP3    H1 9096   2.109   0.576   8.718
  323TIP3    H2 9097   2.228   0.490   8.745
  324TIP3   OH2 9098   2.524   0.601   8.593
  324TIP3    H1 9099   2.622   0.591   8.598
  324TIP3    H2 9100   2.510   0.627   8.500
  325TIP3   OH2 9101   3.162   0.230   9.236
  325TIP3    H1 9102   3.110   0.288   9.294
  325TIP3    H2 9103   3.147   0.264   9.146
  326TIP3   OH2 9104   2.448   0.670   8.330
  326TIP3    H1 9105   2.385   0.609   8.289
  326TIP3    H2 9106   2.484   0.714   8.251
  327TIP3   OH2 9107   3.415   1.893   9.884
  327TIP3    H1 9108   3.448   1.934   9.801
  327TIP3    H2 9109   3.498   1.888   9.932
  328TIP3   OH2 9110   2.199   1.151   9.832
  328TIP3    H1 9111   2.292   1.145   9.859
  328TIP3    H2 9112   2.153   1.095   9.897
  329TIP3   OH2 9113   2.815   0.692   9.112
  329TIP3    H1 9114   2.867   0.629   9.059
  329TIP3    H2 9115   2.778   0.634   9.180
  330TIP3   OH2 9116   2.279   0.324   8.690
  330TIP3    H1 9117   2.258   0.236   8.731
  330TIP3    H2 9118   2.339   0.300   8.615
  331TIP3   OH2 9119   2.723   0.554   9.354
  331TIP3    H1 9120   2.637   0.600   9.348
  331TIP3    H2 9121   2.771   0.600   9.426
  332TIP3   OH2 9122   2.762   1.149   8.509
  332TIP3    H1 9123   2.683   1.093   8.490
  332TIP3    H2 9124   2.737   1.181   8.599
  333TIP3   OH2 9125   3.515   1.095   9.385
  333TIP3    H1 9126   3.552   1.151   9.312
  333TIP3    H2 9127   3.431   1.069   9.344
  334TIP3   OH2 9128   2.868   1.172   9.604
  334TIP3    H1 9129   2.834   1.129   9.683
  334TIP3    H2 9130   2.859   1.266   9.631
  335TIP3   OH2 9131   2.258   1.099   9.054
  335TIP3    H1 9132   2.289   1.069   8.966
  335TIP3    H2 9133   2.288   1.027   9.112
  336TIP3   OH2 9134   1.986   0.856   9.613
  336TIP3    H1 9135   1.950   0.811   9.692
  336TIP3    H2 9136   1.916   0.838   9.547
  337TIP3   OH2 9137   2.659   0.860   9.782
  337TIP3    H1 9138   2.624   0.784   9.734
  337TIP3    H2 9139   2.753   0.832   9.786
  338TIP3   OH2 9140   3.154   1.395   9.672
  338TIP3    H1 9141   3.079   1.421   9.616
  338TIP3    H2 9142   3.125   1.430   9.759
  339TIP3   OH2 9143   3.712   1.188   9.749
  339TIP3    H1 9144   3.617   1.204   9.727
  339TIP3    H2 9145   3.752   1.180   9.659
  340TIP3   OH2 9146   3.481   1.511   8.462
  340TIP3    H1 9147   3.467   1.424   8.503
  340TIP3    H2 9148   3.540   1.492   8.385
  341TIP3   OH2 9149   3.287   0.969   9.212
  341TIP3    H1 9150   3.190   0.965   9.202
  341TIP3    H2 9151   3.316   0.897   9.151
  342TIP3   OH2 9152   2.479   1.406   8.825
  342TIP3    H1 9153   2.508   1.500   8.817
  342TIP3    H2 9154   2.402   1.405   8.766
  343TIP3   OH2 9155   2.663   1.199   8.761
  343TIP3    H1 9156   2.606   1.274   8.785
  343TIP3    H2 9157   2.695   1.163   8.844
  344TIP3   OH2 9158   2.691   1.616   9.466
  344TIP3    H1 9159   2.756   1.677   9.425
  344TIP3    H2 9160   2.742   1.581   9.541
  345TIP3   OH2 9161   2.539   1.659   8.756
  345TIP3    H1 9162   2.443   1.678   8.762
  345TIP3    H2 9163   2.575   1.748   8.777
  346TIP3   OH2 9164   3.000   1.205   9.370
  346TIP3    H1 9165   2.967   1.177   9.459
  346TIP3    H2 9166   3.050   1.128   9.341
  347TIP3   OH2 9167   3.340   1.638   9.609
  347TIP3    H1 9168   3.249   1.604   9.616
  347TIP3    H2 9169   3.329   1.705   9.539
  348TIP3   OH2 9170   2.170   0.343   9.553
  348TIP3    H1 9171   2.099   0.386   9.604
  348TIP3    H2 9172   2.183   0.262   9.606
  349TIP3   OH2 9173   3.355   1.160   8.573
  349TIP3    H1 9174   3.333   1.066   8.575
  349TIP3    H2 9175   3.447   1.159   8.539
  350TIP3   OH2 9176   2.082   1.550   9.395
  350TIP3    H1 9177   2.153   1.489   9.423
  350TIP3    H2 9178   2.057   1.593   9.477
  351TIP3   OH2 9179   2.985   0.411   9.467
  351TIP3    H1 9180   3.066   0.402   9.519
  351TIP3    H2 9181   2.940   0.329   9.496
  352TIP3   OH2 9182   2.782   0.542   8.619
  352TIP3    H1 9183   2.864   0.597   8.619
  352TIP3    H2 9184   2.796   0.492   8.702
  353TIP3   OH2 9185   2.873   0.641   9.564
  353TIP3    H1 9186   2.885   0.668   9.658
  353TIP3    H2 9187   2.915   0.553   9.553
  354TIP3   OH2 9188   2.874   0.248   8.713
  354TIP3    H1 9189   2.837   0.284   8.797
  354TIP3    H2 9190   2.964   0.280   8.724
  355TIP3   OH2 9191   2.547   1.643   8.479
  355TIP3    H1 9192   2.628   1.688   8.450
  355TIP3    H2 9193   2.544   1.661   8.575
  356TIP3   OH2 9194   2.444   0.331   8.468
  356TIP3    H1 9195   2.448   0.426   8.490
  356TIP3    H2 9196   2.539   0.307   8.466
  357TIP3   OH2 9197   3.477   0.374   9.674
  357TIP3    H1 9198   3.381   0.357   9.670
  357TIP3    H2 9199   3.498   0.366   9.579
  358TIP3   OH2 9200   3.343   0.756   9.045
  358TIP3    H1 9201   3.272   0.690   9.055
  358TIP3    H2 9202   3.414   0.714   9.100
  359TIP3   OH2 9203   3.386   1.664   9.228
  359TIP3    H1 9204   3.397   1.713   9.145
  359TIP3    H2 9205   3.481   1.655   9.253
  360TIP3   OH2 9206   2.205   0.096   9.127
  360TIP3    H1 9207   2.195   0.123   9.033
  360TIP3    H2 9208   2.158   0.011   9.118
  361TIP3   OH2 9209   2.007   1.455   8.660
  361TIP3    H1 9210   1.973   1.500   8.739
  361TIP3    H2 9211   2.025   1.533   8.602
  362TIP3   OH2 9212   1.978   1.777   9.868
  362TIP3    H1 9213   2.042   1.767   9.943
  362TIP3    H2 9214   1.955   1.683   9.858
  363TIP3   OH2 9215   2.466   1.669   9.968
  363TIP3    H1 9216   2.553   1.633   9.994
  363TIP3    H2 9217   2.442   1.607   9.897
  364TIP3   OH2 9218   3.096   1.528   9.898
  364TIP3    H1 9219   3.062   1.443   9.933
  364TIP3    H2 9220   3.182   1.533   9.945
  365TIP3   OH2 9221   1.967   1.117  10.000
  365TIP3    H1 9222   1.931   1.030   9.979
  365TIP3    H2 9223   1.924   1.170   9.930
  366TIP3   OH2 9224   2.652   1.132   9.824
  366TIP3    H1 9225   2.624   1.199   9.758
  366TIP3    H2 9226   2.638   1.046   9.778
  367TIP3   OH2 9227   3.221   1.127   9.618
  367TIP3    H1 9228   3.310   1.168   9.624
  367TIP3    H2 9229   3.169   1.207   9.640
  368TIP3   OH2 9230   2.105   0.825   9.908
  368TIP3    H1 9231   2.161   0.747   9.897
  368TIP3    H2 9232   2.148   0.868   9.985
  369TIP3   OH2 9233   2.546   1.009   8.440
  369TIP3    H1 9234   2.461   0.977   8.478
  369TIP3    H2 9235   2.567   0.938   8.380
  370TIP3   OH2 9236   2.440   0.755   9.546
  370TIP3    H1 9237   2.394   0.823   9.600
  370TIP3    H2 9238   2.519   0.807   9.517
  371TIP3   OH2 9239   3.018   1.053   9.950
  371TIP3    H1 9240   3.077   1.001   9.891
  371TIP3    H2 9241   2.935   1.003   9.947
  372TIP3   OH2 9242   2.543   0.543   9.664
  372TIP3    H1 9243   2.582   0.480   9.599
  372TIP3    H2 9244   2.512   0.618   9.608
  373TIP3   OH2 9245   2.605   0.343   9.478
  373TIP3    H1 9246   2.669   0.397   9.426
  373TIP3    H2 9247   2.525   0.351   9.423
  374TIP3   OH2 9248   2.668   0.920   9.491
  374TIP3    H1 9249   2.762   0.933   9.476
  374TIP3    H2 9250   2.628   0.999   9.448
  375TIP3   OH2 9251   3.098   0.676   9.994
  375TIP3    H1 9252   3.110   0.598   9.936
  375TIP3    H2 9253   3.189   0.692  10.023
  376TIP3   OH2 9254   3.296   0.966   9.838
  376TIP3    H1 9255   3.267   1.014   9.757
  376TIP3    H2 9256   3.388   0.944   9.816
  377TIP3   OH2 9257   2.371   0.580   9.886
  377TIP3    H1 9258   2.297   0.516   9.880
  377TIP3    H2 9259   2.416   0.564   9.801
  378TIP3   OH2 9260   2.660   0.079   9.527
  378TIP3    H1 9261   2.642   0.176   9.527
  378TIP3    H2 9262   2.578   0.044   9.489
  379TIP3   OH2 9263   2.759   0.528   9.916
  379TIP3    H1 9264   2.711   0.507   9.999
  379TIP3    H2 9265   2.703   0.481   9.852
  380TIP3   OH2 9266   3.058   0.415   9.832
  380TIP3    H1 9267   2.967   0.409   9.866
  380TIP3    H2 9268   3.110   0.369   9.902
  381TIP3   OH2 9269   3.255   0.347  10.001
  381TIP3    H1 9270   3.244   0.250   9.984
  381TIP3    H2 9271   3.221   0.355  10.094
  382TIP3   OH2 9272   2.176   0.370   9.909
  382TIP3    H1 9273   2.158   0.285   9.865
  382TIP3    H2 9274   2.161   0.348  10.004
  383TIP3   OH2 9275   2.652   0.026   9.788
  383TIP3    H1 9276   2.747   0.005   9.802
  383TIP3    H2 9277   2.653   0.041   9.692
  384TIP3   OH2 9278   2.681   0.180  10.043
  384TIP3    H1 9279   2.695   0.127   9.961
  384TIP3    H2 9280   2.630   0.257  10.012
  385TIP3   OH2 9281   1.864   1.816   8.764
  385TIP3    H1 9282   1.800   1.755   8.721
  385TIP3    H2 9283   1.906   1.758   8.829
  386TIP3   OH2 9284   1.977   1.644   8.965
  386TIP3    H1 9285   1.953   1.558   9.006
  386TIP3    H2 9286   1.990   1.697   9.046
  387TIP3   OH2 9287   3.646   1.687   9.235
  387TIP3    H1 9288   3.716   1.715   9.296
  387TIP3    H2 9289   3.680   1.715   9.149
  388TIP3   OH2 9290   3.670   1.680   9.560
  388TIP3    H1 9291   3.634   1.606   9.505
  388TIP3    H2 9292   3.687   1.634   9.644
  389TIP3   OH2 9293   3.550   1.264  10.067
  389TIP3    H1 9294   3.460   1.280  10.103
  389TIP3    H2 9295   3.604   1.331  10.117
  390TIP3   OH2 9296   3.623   1.122   8.515
  390TIP3    H1 9297   3.712   1.161   8.524
  390TIP3    H2 9298   3.629   1.046   8.576
  391TIP3   OH2 9299   3.696   0.921   8.701
  391TIP3    H1 9300   3.617   0.890   8.750
  391TIP3    H2 9301   3.754   0.950   8.775
  392TIP3   OH2 9302   3.648   1.207   9.196
  392TIP3    H1 9303   3.713   1.135   9.178
  392TIP3    H2 9304   3.702   1.289   9.188
  393TIP3   OH2 9305   3.514   1.466   9.474
  393TIP3    H1 9306   3.452   1.525   9.521
  393TIP3    H2 9307   3.467   1.448   9.391
  394TIP3   OH2 9308   3.504   0.768   8.826
  394TIP3    H1 9309   3.456   0.688   8.800
  394TIP3    H2 9310   3.466   0.781   8.915
  395TIP3   OH2 9311   1.966   1.002   9.207
  395TIP3    H1 9312   1.950   0.964   9.119
  395TIP3    H2 9313   2.057   0.966   9.227
  396TIP3   OH2 9314   3.587   0.954   9.784
  396TIP3    H1 9315   3.639   0.872   9.805
  396TIP3    H2 9316   3.653   1.026   9.786
  397TIP3   OH2 9317   3.677   0.712   9.855
  397TIP3    H1 9318   3.589   0.674   9.833
  397TIP3    H2 9319   3.736   0.634   9.855
  398TIP3   OH2 9320   3.483   0.375   8.128
  398TIP3    H1 9321   3.416   0.437   8.097
  398TIP3    H2 9322   3.514   0.337   8.045
  399TIP3   OH2 9323   3.381   0.568   8.675
  399TIP3    H1 9324   3.404   0.474   8.689
  399TIP3    H2 9325   3.460   0.602   8.630
  400TIP3   OH2 9326   3.525   0.620   9.184
  400TIP3    H1 9327   3.624   0.622   9.189
  400TIP3    H2 9328   3.505   0.606   9.279
  401TIP3   OH2 9329   3.505   0.657   9.449
  401TIP3    H1 9330   3.415   0.693   9.463
  401TIP3    H2 9331   3.556   0.740   9.439
  402TIP3   OH2 9332   1.964   0.509   9.815
  402TIP3    H1 9333   2.047   0.491   9.862
  402TIP3    H2 9334   1.921   0.420   9.822
  403TIP3   OH2 9335   3.742   0.066  10.001
  403TIP3    H1 9336   3.722  -0.014   9.950
  403TIP3    H2 9337   3.726   0.134   9.932
  404TIP3   OH2 9338   3.462   0.267   8.717
  404TIP3    H1 9339   3.505   0.240   8.801
  404TIP3    H2 9340   3.508   0.210   8.654
  405TIP3   OH2 9341   2.075   0.324   9.168
  405TIP3    H1 9342   2.136   0.249   9.184
  405TIP3    H2 9343   2.137   0.400   9.163
  406TIP3   OH2 9344   1.931   0.619   9.226
  406TIP3    H1 9345   1.980   0.635   9.142
  406TIP3    H2 9346   2.003   0.617   9.290
  407TIP3   OH2 9347   3.708   0.269   9.832
  407TIP3    H1 9348   3.630   0.314   9.871
  407TIP3    H2 9349   3.666   0.232   9.752
  408TIP3   OH2 9350   3.746   0.253   8.338
  408TIP3    H1 9351   3.796   0.187   8.288
  408TIP3    H2 9352   3.693   0.296   8.269
  409TIP3   OH2 9353   1.889   0.268   8.611
  409TIP3    H1 9354   1.809   0.303   8.654
  409TIP3    H2 9355   1.944   0.347   8.600
  410TIP3   OH2 9356   3.404   1.749   8.839
  410TIP3    H1 9357   3.476   1.750   8.773
  410TIP3    H2 9358   3.434   1.813   8.907
  411TIP3   OH2 9359   1.888   0.113   9.439
  411TIP3    H1 9360   1.887   0.157   9.525
  411TIP3    H2 9361   1.843   0.177   9.380
  412TIP3   OH2 9362   2.129   1.423   9.857
  412TIP3    H1 9363   2.051   1.476   9.834
  412TIP3    H2 9364   2.091   1.338   9.880
  413TIP3   OH2 9365   2.421   1.614   9.533
  413TIP3    H1 9366   2.416   1.701   9.487
  413TIP3    H2 9367   2.513   1.589   9.513
  414TIP3   OH2 9368   2.826   1.699   9.770
  414TIP3    H1 9369   2.852   1.672   9.860
  414TIP3    H2 9370   2.903   1.755   9.746
  415TIP3   OH2 9371   3.036   1.855   9.703
  415TIP3    H1 9372   3.112   1.817   9.656
  415TIP3    H2 9373   3.075   1.879   9.790
  416TIP3   OH2 9374   3.601   0.072   9.643
  416TIP3    H1 9375   3.551   0.123   9.578
  416TIP3    H2 9376   3.580  -0.019   9.614
  417TIP3   OH2 9377   2.158   1.882   9.492
  417TIP3    H1 9378   2.083   1.938   9.463
  417TIP3    H2 9379   2.151   1.889   9.588
  418TIP3   OH2 9380   2.397   1.835   9.379
  418TIP3    H1 9381   2.302   1.847   9.402
  418TIP3    H2 9382   2.411   1.906   9.313
  419TIP3   OH2 9383   2.862   1.789   9.325
  419TIP3    H1 9384   2.820   1.832   9.249
  419TIP3    H2 9385   2.887   1.867   9.379
  420TIP3   OH2 9386   3.076   1.677   9.463
  420TIP3    H1 9387   3.007   1.704   9.399
  420TIP3    H2 9388   3.147   1.741   9.438
  421TIP3   OH2 9389   3.295   1.835   9.421
  421TIP3    H1 9390   3.312   1.929   9.400
  421TIP3    H2 9391   3.335   1.791   9.342
  422TIP3   OH2 9392   2.124   1.719   9.186
  422TIP3    H1 9393   2.100   1.665   9.265
  422TIP3    H2 9394   2.205   1.671   9.155
  423TIP3   OH2 9395   2.336   1.599   9.065
  423TIP3    H1 9396   2.325   1.507   9.097
  423TIP3    H2 9397   2.426   1.617   9.099
  424TIP3   OH2 9398   2.587   1.627   9.158
  424TIP3    H1 9399   2.619   1.535   9.151
  424TIP3    H2 9400   2.587   1.639   9.254
  425TIP3   OH2 9401   2.907   0.204   9.038
  425TIP3    H1 9402   2.815   0.170   9.041
  425TIP3    H2 9403   2.947   0.159   9.114
  426TIP3   OH2 9404   3.455   0.147   9.094
  426TIP3    H1 9405   3.531   0.139   9.032
  426TIP3    H2 9406   3.389   0.087   9.055
  427TIP3   OH2 9407   3.650   0.143   8.897
  427TIP3    H1 9408   3.722   0.081   8.880
  427TIP3    H2 9409   3.700   0.227   8.911
  428TIP3   OH2 9410   2.210   0.104   8.849
  428TIP3    H1 9411   2.138   0.060   8.800
  428TIP3    H2 9412   2.251   0.028   8.894
  429TIP3   OH2 9413   1.981  -0.006   8.415
  429TIP3    H1 9414   2.052   0.042   8.373
  429TIP3    H2 9415   1.948   0.056   8.483
  430TIP3   OH2 9416   2.649   0.045   8.799
  430TIP3    H1 9417   2.705   0.119   8.770
  430TIP3    H2 9418   2.632   0.071   8.892
  431TIP3   OH2 9419   3.234   0.046   8.931
  431TIP3    H1 9420   3.202   0.125   8.886
  431TIP3    H2 9421   3.149   0.003   8.954
  432TIP3   OH2 9422   3.282   0.091   8.523
  432TIP3    H1 9423   3.257   0.183   8.515
  432TIP3    H2 9424   3.284   0.077   8.619
  433TIP3   OH2 9425   2.027   1.653   8.477
  433TIP3    H1 9426   2.019   1.660   8.381
  433TIP3    H2 9427   2.063   1.744   8.494
  434TIP3   OH2 9428   2.714   0.308   8.495
  434TIP3    H1 9429   2.758   0.263   8.569
  434TIP3    H2 9430   2.736   0.401   8.517
  435TIP3   OH2 9431   3.562   1.712   8.618
  435TIP3    H1 9432   3.533   1.638   8.559
  435TIP3    H2 9433   3.532   1.789   8.569
  436TIP3   OH2 9434   2.112   0.135   9.748
  436TIP3    H1 9435   2.037   0.074   9.760
  436TIP3    H2 9436   2.185   0.095   9.799
  437TIP3   OH2 9437   2.356   0.093   9.968
  437TIP3    H1 9438   2.449   0.119   9.980
  437TIP3    H2 9439   2.372   0.002   9.935
  438TIP3   OH2 9440   3.235   0.097   9.913
  438TIP3    H1 9441   3.204   0.015   9.957
  438TIP3    H2 9442   3.319   0.064   9.879
  439TIP3   OH2 9443   3.511   1.598   9.811
  439TIP3    H1 9444   3.452   1.602   9.732
  439TIP3    H2 9445   3.485   1.680   9.853
  440TIP3   OH2 9446   4.044   0.894   9.345
  440TIP3    H1 9447   3.991   0.844   9.409
  440TIP3    H2 9448   4.115   0.926   9.404
  441TIP3   OH2 9449   4.161   1.379   9.213
  441TIP3    H1 9450   4.112   1.301   9.183
  441TIP3    H2 9451   4.251   1.343   9.195
  442TIP3   OH2 9452   3.815   0.677   8.683
  442TIP3    H1 9453   3.806   0.774   8.695
  442TIP3    H2 9454   3.738   0.646   8.732
  443TIP3   OH2 9455   3.914   0.920   8.948
  443TIP3    H1 9456   3.945   0.830   8.975
  443TIP3    H2 9457   3.996   0.974   8.949
  444TIP3   OH2 9458   4.267   0.383   8.966
  444TIP3    H1 9459   4.363   0.403   8.951
  444TIP3    H2 9460   4.245   0.329   8.888
  445TIP3   OH2 9461   3.968   0.679   9.040
  445TIP3    H1 9462   4.035   0.634   9.097
  445TIP3    H2 9463   3.975   0.622   8.959
  446TIP3   OH2 9464   4.218   0.320   9.363
  446TIP3    H1 9465   4.164   0.365   9.296
  446TIP3    H2 9466   4.162   0.332   9.443
  447TIP3   OH2 9467   4.405   1.064   9.372
  447TIP3    H1 9468   4.349   1.145   9.381
  447TIP3    H2 9469   4.470   1.088   9.302
  448TIP3   OH2 9470   4.152   0.520   9.154
  448TIP3    H1 9471   4.222   0.571   9.201
  448TIP3    H2 9472   4.202   0.483   9.076
  449TIP3   OH2 9473   4.283   1.293   9.466
  449TIP3    H1 9474   4.266   1.376   9.419
  449TIP3    H2 9475   4.201   1.288   9.520
  450TIP3   OH2 9476   3.857   1.252   8.544
  450TIP3    H1 9477   3.867   1.303   8.461
  450TIP3    H2 9478   3.839   1.319   8.611
  451TIP3   OH2 9479   4.316   0.971   8.833
  451TIP3    H1 9480   4.315   0.963   8.736
  451TIP3    H2 9481   4.374   0.898   8.860
  452TIP3   OH2 9482   4.395   1.260   9.121
  452TIP3    H1 9483   4.393   1.292   9.029
  452TIP3    H2 9484   4.480   1.299   9.150
  453TIP3   OH2 9485   4.321   0.881   9.177
  453TIP3    H1 9486   4.358   0.903   9.090
  453TIP3    H2 9487   4.348   0.959   9.229
  454TIP3   OH2 9488   4.500   1.337   9.711
  454TIP3    H1 9489   4.417   1.389   9.715
  454TIP3    H2 9490   4.494   1.291   9.626
  455TIP3   OH2 9491   4.158   0.936   9.586
  455TIP3    H1 9492   4.176   1.031   9.598
  455TIP3    H2 9493   4.070   0.923   9.627
  456TIP3   OH2 9494   4.289   1.492   9.788
  456TIP3    H1 9495   4.294   1.539   9.703
  456TIP3    H2 9496   4.194   1.470   9.789
  457TIP3   OH2 9497   4.258   0.934   8.574
  457TIP3    H1 9498   4.195   1.007   8.554
  457TIP3    H2 9499   4.201   0.870   8.619
  458TIP3   OH2 9500   3.835   1.154   9.516
  458TIP3    H1 9501   3.769   1.139   9.446
  458TIP3    H2 9502   3.880   1.067   9.516
  459TIP3   OH2 9503   3.816   1.427   9.192
  459TIP3    H1 9504   3.904   1.400   9.166
  459TIP3    H2 9505   3.834   1.466   9.280
  460TIP3   OH2 9506   4.131   1.680   8.819
  460TIP3    H1 9507   4.172   1.660   8.907
  460TIP3    H2 9508   4.061   1.611   8.816
  461TIP3   OH2 9509   4.064   1.278   9.621
  461TIP3    H1 9510   4.084   1.238   9.709
  461TIP3    H2 9511   3.974   1.244   9.601
  462TIP3   OH2 9512   4.338   0.075   9.234
  462TIP3    H1 9513   4.274   0.068   9.162
  462TIP3    H2 9514   4.313   0.162   9.272
  463TIP3   OH2 9515   4.266   0.686   9.359
  463TIP3    H1 9516   4.172   0.700   9.380
  463TIP3    H2 9517   4.283   0.753   9.288
  464TIP3   OH2 9518   4.283   0.644   8.761
  464TIP3    H1 9519   4.236   0.582   8.817
  464TIP3    H2 9520   4.319   0.584   8.693
  465TIP3   OH2 9521   4.035   0.627   9.478
  465TIP3    H1 9522   4.098   0.637   9.552
  465TIP3    H2 9523   4.027   0.530   9.471
  466TIP3   OH2 9524   4.418   0.403   8.161
  466TIP3    H1 9525   4.393   0.315   8.126
  466TIP3    H2 9526   4.466   0.442   8.085
  467TIP3   OH2 9527   3.785   0.372   8.926
  467TIP3    H1 9528   3.825   0.374   9.016
  467TIP3    H2 9529   3.860   0.395   8.870
  468TIP3   OH2 9530   3.991   0.531   8.817
  468TIP3    H1 9531   3.939   0.581   8.749
  468TIP3    H2 9532   4.039   0.467   8.762
  469TIP3   OH2 9533   4.373   0.509   8.541
  469TIP3    H1 9534   4.451   0.568   8.555
  469TIP3    H2 9535   4.326   0.561   8.472
  470TIP3   OH2 9536   4.275   0.610   8.305
  470TIP3    H1 9537   4.199   0.555   8.287
  470TIP3    H2 9538   4.344   0.559   8.256
  471TIP3   OH2 9539   4.089   1.148   9.851
  471TIP3    H1 9540   4.169   1.154   9.907
  471TIP3    H2 9541   4.024   1.114   9.915
  472TIP3   OH2 9542   4.197   0.305   8.711
  472TIP3    H1 9543   4.115   0.258   8.736
  472TIP3    H2 9544   4.259   0.231   8.705
  473TIP3   OH2 9545   4.140   1.063   9.079
  473TIP3    H1 9546   4.215   1.074   9.019
  473TIP3    H2 9547   4.164   0.984   9.130
  474TIP3   OH2 9548   3.878   0.872   9.602
  474TIP3    H1 9549   3.886   0.813   9.680
  474TIP3    H2 9550   3.799   0.836   9.557
  475TIP3   OH2 9551   4.326   1.405   8.884
  475TIP3    H1 9552   4.356   1.484   8.838
  475TIP3    H2 9553   4.236   1.396   8.848
  476TIP3   OH2 9554   4.366   1.637   8.713
  476TIP3    H1 9555   4.272   1.664   8.733
  476TIP3    H2 9556   4.411   1.661   8.796
  477TIP3   OH2 9557   4.033   0.349   9.559
  477TIP3    H1 9558   3.972   0.391   9.622
  477TIP3    H2 9559   4.029   0.255   9.583
  478TIP3   OH2 9560   3.951   1.530   9.409
  478TIP3    H1 9561   4.022   1.467   9.430
  478TIP3    H2 9562   3.957   1.589   9.486
  479TIP3   OH2 9563   4.349   1.323   8.410
  479TIP3    H1 9564   4.419   1.298   8.473
  479TIP3    H2 9565   4.374   1.413   8.383
  480TIP3   OH2 9566   4.117   1.159   8.487
  480TIP3    H1 9567   4.042   1.192   8.540
  480TIP3    H2 9568   4.163   1.239   8.458
  481TIP3   OH2 9569   4.420   1.677   8.457
  481TIP3    H1 9570   4.445   1.766   8.485
  481TIP3    H2 9571   4.388   1.643   8.543
  482TIP3   OH2 9572   4.336   0.219   8.441
  482TIP3    H1 9573   4.285   0.291   8.480
  482TIP3    H2 9574   4.424   0.245   8.470
  483TIP3   OH2 9575   4.056   0.103   9.140
  483TIP3    H1 9576   4.037   0.109   9.044
  483TIP3    H2 9577   4.015   0.017   9.158
  484TIP3   OH2 9578   3.940   1.490   8.762
  484TIP3    H1 9579   3.860   1.540   8.786
  484TIP3    H2 9580   3.955   1.523   8.672
  485TIP3   OH2 9581   3.872   1.756   9.860
  485TIP3    H1 9582   3.944   1.743   9.925
  485TIP3    H2 9583   3.842   1.663   9.847
  486TIP3   OH2 9584   4.388   1.639  10.013
  486TIP3    H1 9585   4.413   1.567  10.072
  486TIP3    H2 9586   4.351   1.588   9.938
  487TIP3   OH2 9587   3.848   1.138   9.988
  487TIP3    H1 9588   3.783   1.075  10.025
  487TIP3    H2 9589   3.799   1.172   9.910
  488TIP3   OH2 9590   4.028   0.813   9.895
  488TIP3    H1 9591   4.116   0.813   9.859
  488TIP3    H2 9592   4.036   0.869   9.975
  489TIP3   OH2 9593   4.482   0.801   8.450
  489TIP3    H1 9594   4.418   0.855   8.498
  489TIP3    H2 9595   4.471   0.831   8.359
  490TIP3   OH2 9596   4.357   0.760   9.633
  490TIP3    H1 9597   4.279   0.819   9.624
  490TIP3    H2 9598   4.375   0.742   9.539
  491TIP3   OH2 9599   4.312   0.481   9.688
  491TIP3    H1 9600   4.359   0.432   9.617
  491TIP3    H2 9601   4.327   0.574   9.662
  492TIP3   OH2 9602   4.459   0.377   9.472
  492TIP3    H1 9603   4.498   0.451   9.424
  492TIP3    H2 9604   4.377   0.358   9.420
  493TIP3   OH2 9605   4.256   0.578   9.940
  493TIP3    H1 9606   4.169   0.540   9.953
  493TIP3    H2 9607   4.276   0.550   9.848
  494TIP3   OH2 9608   4.033   0.356   9.933
  494TIP3    H1 9609   4.002   0.283   9.877
  494TIP3    H2 9610   4.035   0.315  10.023
  495TIP3   OH2 9611   3.913   1.347   8.287
  495TIP3    H1 9612   4.004   1.377   8.267
  495TIP3    H2 9613   3.886   1.311   8.200
  496TIP3   OH2 9614   3.737   1.834   8.773
  496TIP3    H1 9615   3.678   1.770   8.727
  496TIP3    H2 9616   3.764   1.781   8.851
  497TIP3   OH2 9617   3.816   1.663   8.978
  497TIP3    H1 9618   3.784   1.577   9.013
  497TIP3    H2 9619   3.877   1.691   9.050
  498TIP3   OH2 9620   3.836   0.998   9.194
  498TIP3    H1 9621   3.840   0.962   9.103
  498TIP3    H2 9622   3.931   0.990   9.220
  499TIP3   OH2 9623   3.845   0.505   9.813
  499TIP3    H1 9624   3.919   0.491   9.875
  499TIP3    H2 9625   3.797   0.421   9.824
  500TIP3   OH2 9626   3.944   0.350   9.158
  500TIP3    H1 9627   3.981   0.261   9.173
  500TIP3    H2 9628   4.023   0.401   9.132
  501TIP3   OH2 9629   3.784   0.631   9.227
  501TIP3    H1 9630   3.849   0.621   9.155
  501TIP3    H2 9631   3.828   0.698   9.282
  502TIP3   OH2 9632   3.791   0.281   8.615
  502TIP3    H1 9633   3.704   0.321   8.630
  502TIP3    H2 9634   3.786   0.254   8.522
  503TIP3   OH2 9635   3.765   0.095   9.405
  503TIP3    H1 9636   3.779   0.131   9.494
  503TIP3    H2 9637   3.719   0.169   9.359
  504TIP3   OH2 9638   4.032   1.436   9.873
  504TIP3    H1 9639   3.953   1.475   9.833
  504TIP3    H2 9640   4.005   1.344   9.884
  505TIP3   OH2 9641   4.290   1.582   9.525
  505TIP3    H1 9642   4.266   1.671   9.490
  505TIP3    H2 9643   4.372   1.570   9.475
  506TIP3   OH2 9644   4.034   1.893   9.505
  506TIP3    H1 9645   3.950   1.932   9.471
  506TIP3    H2 9646   4.027   1.917   9.599
  507TIP3   OH2 9647   4.246   1.802   9.394
  507TIP3    H1 9648   4.159   1.847   9.409
  507TIP3    H2 9649   4.279   1.845   9.312
  508TIP3   OH2 9650   3.984   1.704   9.181
  508TIP3    H1 9651   3.972   1.644   9.258
  508TIP3    H2 9652   4.073   1.675   9.151
  509TIP3   OH2 9653   4.205   1.608   9.067
  509TIP3    H1 9654   4.182   1.524   9.112
  509TIP3    H2 9655   4.285   1.629   9.120
  510TIP3   OH2 9656   4.421   1.617   9.218
  510TIP3    H1 9657   4.485   1.550   9.187
  510TIP3    H2 9658   4.457   1.701   9.187
  511TIP3   OH2 9659   4.022   0.108   8.863
  511TIP3    H1 9660   3.955   0.053   8.818
  511TIP3    H2 9661   4.097   0.044   8.858
  512TIP3   OH2 9662   3.913   1.665   8.533
  512TIP3    H1 9663   3.905   1.606   8.456
  512TIP3    H2 9664   3.907   1.753   8.490
  513TIP3   OH2 9665   4.014   0.090   9.739
  513TIP3    H1 9666   3.926   0.068   9.774
  513TIP3    H2 9667   4.079   0.078   9.811
  514TIP3   OH2 9668   4.242   0.082   9.966
  514TIP3    H1 9669   4.325   0.127   9.945
  514TIP3    H2 9670   4.259  -0.008   9.930
  515TIP3   OH2 9671   1.223   2.872   8.801
  515TIP3    H1 9672   1.217   2.969   8.794
  515TIP3    H2 9673   1.152   2.846   8.739
  516TIP3   OH2 9674   1.073   2.780   9.189
  516TIP3    H1 9675   1.096   2.728   9.270
  516TIP3    H2 9676   1.030   2.713   9.133
  517TIP3   OH2 9677   0.325   2.718   9.286
  517TIP3    H1 9678   0.304   2.645   9.346
  517TIP3    H2 9679   0.385   2.772   9.342
  518TIP3   OH2 9680   1.448   3.093   9.012
  518TIP3    H1 9681   1.463   3.022   9.077
  518TIP3    H2 9682   1.441   3.170   9.070
  519TIP3   OH2 9683   0.411   3.191   9.149
  519TIP3    H1 9684   0.387   3.104   9.109
  519TIP3    H2 9685   0.508   3.184   9.149
  520TIP3   OH2 9686   0.098   2.566   8.684
  520TIP3    H1 9687   0.085   2.662   8.692
  520TIP3    H2 9688   0.048   2.538   8.763
  521TIP3   OH2 9689   0.099   2.733   8.935
  521TIP3    H1 9690   0.149   2.657   8.973
  521TIP3    H2 9691   0.167   2.796   8.906
  522TIP3   OH2 9692   1.147   3.601   9.034
  522TIP3    H1 9693   1.207   3.558   8.970
  522TIP3    H2 9694   1.124   3.526   9.090
  523TIP3   OH2 9695   0.914   3.076   9.222
  523TIP3    H1 9696   0.941   3.004   9.162
  523TIP3    H2 9697   1.001   3.098   9.262
  524TIP3   OH2 9698   1.733   2.154   9.301
  524TIP3    H1 9699   1.758   2.233   9.354
  524TIP3    H2 9700   1.812   2.143   9.245
  525TIP3   OH2 9701   1.271   2.486   9.252
  525TIP3    H1 9702   1.259   2.389   9.263
  525TIP3    H2 9703   1.256   2.493   9.155
  526TIP3   OH2 9704   0.563   2.245   8.914
  526TIP3    H1 9705   0.584   2.338   8.889
  526TIP3    H2 9706   0.503   2.222   8.841
  527TIP3   OH2 9707   1.285   2.316   8.855
  527TIP3    H1 9708   1.346   2.268   8.916
  527TIP3    H2 9709   1.352   2.363   8.802
  528TIP3   OH2 9710   0.235   2.504   9.020
  528TIP3    H1 9711   0.305   2.463   9.077
  528TIP3    H2 9712   0.274   2.489   8.931
  529TIP3   OH2 9713   0.695   2.682   8.983
  529TIP3    H1 9714   0.787   2.649   8.983
  529TIP3    H2 9715   0.653   2.605   8.937
  530TIP3   OH2 9716   1.765   2.335   9.503
  530TIP3    H1 9717   1.724   2.419   9.473
  530TIP3    H2 9718   1.797   2.362   9.590
  531TIP3   OH2 9719   0.458   2.179   9.346
  531TIP3    H1 9720   0.429   2.249   9.282
  531TIP3    H2 9721   0.396   2.190   9.420
  532TIP3   OH2 9722   1.164   3.134   8.714
  532TIP3    H1 9723   1.104   3.106   8.642
  532TIP3    H2 9724   1.127   3.222   8.733
  533TIP3   OH2 9725   0.695   2.971   9.344
  533TIP3    H1 9726   0.633   3.045   9.363
  533TIP3    H2 9727   0.767   3.021   9.299
  534TIP3   OH2 9728   1.507   2.237   8.989
  534TIP3    H1 9729   1.536   2.187   9.067
  534TIP3    H2 9730   1.584   2.292   8.971
  535TIP3   OH2 9731   0.427   2.354   9.132
  535TIP3    H1 9732   0.491   2.420   9.167
  535TIP3    H2 9733   0.477   2.310   9.060
  536TIP3   OH2 9734   0.568   3.207   9.445
  536TIP3    H1 9735   0.561   3.305   9.440
  536TIP3    H2 9736   0.478   3.182   9.475
  537TIP3   OH2 9737   0.129   3.025   8.609
  537TIP3    H1 9738   0.090   3.069   8.532
  537TIP3    H2 9739   0.131   3.093   8.679
  538TIP3   OH2 9740   1.500   3.310   9.255
  538TIP3    H1 9741   1.403   3.307   9.254
  538TIP3    H2 9742   1.512   3.396   9.209
  539TIP3   OH2 9743   1.461   2.146   9.358
  539TIP3    H1 9744   1.399   2.183   9.291
  539TIP3    H2 9745   1.551   2.168   9.326
  540TIP3   OH2 9746   0.783   1.865   9.144
  540TIP3    H1 9747   0.738   1.778   9.139
  540TIP3    H2 9748   0.704   1.926   9.144
  541TIP3   OH2 9749   1.349   3.454   8.881
  541TIP3    H1 9750   1.377   3.390   8.811
  541TIP3    H2 9751   1.404   3.532   8.859
  542TIP3   OH2 9752   1.445   3.252   8.723
  542TIP3    H1 9753   1.420   3.187   8.655
  542TIP3    H2 9754   1.424   3.201   8.804
  543TIP3   OH2 9755   1.594   3.113   9.599
  543TIP3    H1 9756   1.610   3.043   9.532
  543TIP3    H2 9757   1.612   3.193   9.546
  544TIP3   OH2 9758   1.061   2.809   8.593
  544TIP3    H1 9759   1.015   2.894   8.578
  544TIP3    H2 9760   1.132   2.812   8.525
  545TIP3   OH2 9761   0.996   2.654   8.295
  545TIP3    H1 9762   1.051   2.596   8.348
  545TIP3    H2 9763   0.952   2.589   8.236
  546TIP3   OH2 9764   1.796   2.757   9.399
  546TIP3    H1 9765   1.733   2.831   9.399
  546TIP3    H2 9766   1.857   2.783   9.327
  547TIP3   OH2 9767   1.426   2.731   8.707
  547TIP3    H1 9768   1.357   2.792   8.744
  547TIP3    H2 9769   1.498   2.750   8.768
  548TIP3   OH2 9770   1.387   2.635   9.576
  548TIP3    H1 9771   1.377   2.727   9.606
  548TIP3    H2 9772   1.322   2.634   9.504
  549TIP3   OH2 9773   0.604   2.870   8.824
  549TIP3    H1 9774   0.552   2.820   8.758
  549TIP3    H2 9775   0.647   2.800   8.878
  550TIP3   OH2 9776   0.703   3.204   9.104
  550TIP3    H1 9777   0.706   3.201   9.007
  550TIP3    H2 9778   0.788   3.162   9.132
  551TIP3   OH2 9779   0.598   2.747   9.216
  551TIP3    H1 9780   0.633   2.739   9.124
  551TIP3    H2 9781   0.654   2.817   9.256
  552TIP3   OH2 9782   1.236   3.323   9.293
  552TIP3    H1 9783   1.240   3.380   9.373
  552TIP3    H2 9784   1.213   3.235   9.332
  553TIP3   OH2 9785   0.728   3.205   9.658
  553TIP3    H1 9786   0.663   3.257   9.711
  553TIP3    H2 9787   0.675   3.189   9.577
  554TIP3   OH2 9788   1.308   2.777   8.471
  554TIP3    H1 9789   1.357   2.750   8.553
  554TIP3    H2 9790   1.367   2.845   8.437
  555TIP3   OH2 9791   0.398   2.845   9.515
  555TIP3    H1 9792   0.407   2.933   9.553
  555TIP3    H2 9793   0.321   2.812   9.566
  556TIP3   OH2 9794   1.023   3.418   8.741
  556TIP3    H1 9795   1.031   3.436   8.835
  556TIP3    H2 9796   0.972   3.494   8.708
  557TIP3   OH2 9797   0.539   3.363   9.771
  557TIP3    H1 9798   0.527   3.397   9.680
  557TIP3    H2 9799   0.446   3.344   9.794
  558TIP3   OH2 9800   0.439   2.764   8.638
  558TIP3    H1 9801   0.434   2.852   8.596
  558TIP3    H2 9802   0.411   2.704   8.567
  559TIP3   OH2 9803   0.125   3.006   9.526
  559TIP3    H1 9804   0.051   2.988   9.463
  559TIP3    H2 9805   0.153   2.913   9.543
  560TIP3   OH2 9806   0.138   3.272   9.196
  560TIP3    H1 9807   0.224   3.231   9.174
  560TIP3    H2 9808   0.169   3.328   9.270
  561TIP3   OH2 9809   1.866   3.355   9.767
  561TIP3    H1 9810   1.842   3.268   9.731
  561TIP3    H2 9811   1.779   3.381   9.804
  562TIP3   OH2 9812   0.988   3.281   9.635
  562TIP3    H1 9813   0.999   3.354   9.698
  562TIP3    H2 9814   0.892   3.262   9.640
  563TIP3   OH2 9815   0.972   3.653   8.593
  563TIP3    H1 9816   1.041   3.633   8.527
  563TIP3    H2 9817   1.008   3.733   8.636
  564TIP3   OH2 9818   0.400   3.544   8.809
  564TIP3    H1 9819   0.409   3.503   8.898
  564TIP3    H2 9820   0.356   3.470   8.762
  565TIP3   OH2 9821   1.256   3.580   8.617
  565TIP3    H1 9822   1.180   3.540   8.661
  565TIP3    H2 9823   1.307   3.502   8.591
  566TIP3   OH2 9824   1.544   2.484   9.810
  566TIP3    H1 9825   1.498   2.535   9.741
  566TIP3    H2 9826   1.542   2.395   9.770
  567TIP3   OH2 9827   0.326   3.173   9.569
  567TIP3    H1 9828   0.326   3.150   9.663
  567TIP3    H2 9829   0.246   3.121   9.543
  568TIP3   OH2 9830   0.563   2.016   9.158
  568TIP3    H1 9831   0.475   2.020   9.115
  568TIP3    H2 9832   0.545   2.078   9.231
  569TIP3   OH2 9833   1.055   1.979   9.499
  569TIP3    H1 9834   1.095   1.951   9.586
  569TIP3    H2 9835   0.958   1.977   9.516
  570TIP3   OH2 9836   1.290   2.377   9.637
  570TIP3    H1 9837   1.227   2.351   9.708
  570TIP3    H2 9838   1.277   2.473   9.625
  571TIP3   OH2 9839   0.596   2.493   9.291
  571TIP3    H1 9840   0.515   2.486   9.347
  571TIP3    H2 9841   0.592   2.589   9.270
  572TIP3   OH2 9842   0.590   2.490   8.838
  572TIP3    H1 9843   0.499   2.509   8.803
  572TIP3    H2 9844   0.640   2.484   8.753
  573TIP3   OH2 9845   1.102   2.547   8.637
  573TIP3    H1 9846   1.052   2.631   8.645
  573TIP3    H2 9847   1.171   2.574   8.576
  574TIP3   OH2 9848   1.006   2.624   9.838
  574TIP3    H1 9849   0.966   2.534   9.844
  574TIP3    H2 9850   1.077   2.615   9.905
  575TIP3   OH2 9851   1.245   2.564   8.987
  575TIP3    H1 9852   1.223   2.635   8.924
  575TIP3    H2 9853   1.240   2.484   8.930
  576TIP3   OH2 9854   0.357   2.478   9.429
  576TIP3    H1 9855   0.378   2.527   9.511
  576TIP3    H2 9856   0.304   2.404   9.467
  577TIP3   OH2 9857   0.041   2.267   8.906
  577TIP3    H1 9858   0.091   2.251   8.989
  577TIP3    H2 9859   0.028   2.177   8.873
  578TIP3   OH2 9860   0.188   2.347   8.415
  578TIP3    H1 9861   0.255   2.413   8.390
  578TIP3    H2 9862   0.109   2.401   8.429
  579TIP3   OH2 9863   1.144   2.653   9.410
  579TIP3    H1 9864   1.190   2.581   9.359
  579TIP3    H2 9865   1.082   2.603   9.469
  580TIP3   OH2 9866   0.847   2.290   8.919
  580TIP3    H1 9867   0.752   2.268   8.921
  580TIP3    H2 9868   0.885   2.212   8.965
  581TIP3   OH2 9869   0.333   2.473   8.757
  581TIP3    H1 9870   0.254   2.508   8.711
  581TIP3    H2 9871   0.322   2.375   8.750
  582TIP3   OH2 9872   0.701   2.500   8.603
  582TIP3    H1 9873   0.749   2.446   8.539
  582TIP3    H2 9874   0.656   2.562   8.544
  583TIP3   OH2 9875   1.251   2.207   9.211
  583TIP3    H1 9876   1.194   2.187   9.288
  583TIP3    H2 9877   1.236   2.135   9.148
  584TIP3   OH2 9878   0.607   2.579   8.295
  584TIP3    H1 9879   0.547   2.592   8.218
  584TIP3    H2 9880   0.669   2.518   8.252
  585TIP3   OH2 9881   1.559   3.765   9.885
  585TIP3    H1 9882   1.586   3.799   9.798
  585TIP3    H2 9883   1.642   3.777   9.933
  586TIP3   OH2 9884   0.358   2.993   9.818
  586TIP3    H1 9885   0.446   3.015   9.854
  586TIP3    H2 9886   0.326   2.934   9.887
  587TIP3   OH2 9887   0.934   2.537   8.959
  587TIP3    H1 9888   1.020   2.497   8.978
  587TIP3    H2 9889   0.886   2.457   8.929
  588TIP3   OH2 9890   0.365   2.196   8.741
  588TIP3    H1 9891   0.358   2.106   8.781
  588TIP3    H2 9892   0.429   2.179   8.668
  589TIP3   OH2 9893   0.828   2.388   9.381
  589TIP3    H1 9894   0.757   2.442   9.340
  589TIP3    H2 9895   0.891   2.454   9.412
  590TIP3   OH2 9896   0.936   3.051   8.573
  590TIP3    H1 9897   0.863   3.001   8.530
  590TIP3    H2 9898   0.887   3.079   8.654
  591TIP3   OH2 9899   1.617   2.957   9.389
  591TIP3    H1 9900   1.664   3.010   9.320
  591TIP3    H2 9901   1.537   2.933   9.338
  592TIP3   OH2 9902   0.994   2.992   9.585
  592TIP3    H1 9903   1.008   2.976   9.679
  592TIP3    H2 9904   0.978   3.088   9.588
  593TIP3   OH2 9905   0.411   2.940   9.074
  593TIP3    H1 9906   0.456   2.913   8.993
  593TIP3    H2 9907   0.429   2.867   9.137
  594TIP3   OH2 9908   0.158   2.756   9.606
  594TIP3    H1 9909   0.184   2.730   9.698
  594TIP3    H2 9910   0.064   2.731   9.605
  595TIP3   OH2 9911   0.731   2.765   9.801
  595TIP3    H1 9912   0.688   2.709   9.734
  595TIP3    H2 9913   0.814   2.717   9.813
  596TIP3   OH2 9914   1.280   3.279   9.664
  596TIP3    H1 9915   1.200   3.296   9.612
  596TIP3    H2 9916   1.258   3.329   9.745
  597TIP3   OH2 9917   1.833   3.084   9.718
  597TIP3    H1 9918   1.737   3.083   9.693
  597TIP3    H2 9919   1.877   3.069   9.632
  598TIP3   OH2 9920   1.750   3.312   8.529
  598TIP3    H1 9921   1.682   3.288   8.593
  598TIP3    H2 9922   1.697   3.319   8.448
  599TIP3   OH2 9923   1.425   2.870   9.185
  599TIP3    H1 9924   1.333   2.851   9.161
  599TIP3    H2 9925   1.474   2.799   9.138
  600TIP3   OH2 9926   0.617   3.281   8.847
  600TIP3    H1 9927   0.642   3.373   8.824
  600TIP3    H2 9928   0.524   3.279   8.818
  601TIP3   OH2 9929   0.255   2.793   8.256
  601TIP3    H1 9930   0.300   2.772   8.173
  601TIP3    H2 9931   0.161   2.800   8.231
  602TIP3   OH2 9932   0.764   3.073   8.767
  602TIP3    H1 9933   0.710   3.147   8.801
  602TIP3    H2 9934   0.713   2.995   8.800
  603TIP3   OH2 9935   0.829   3.483   9.464
  603TIP3    H1 9936   0.886   3.543   9.412
  603TIP3    H2 9937   0.894   3.441   9.523
  604TIP3   OH2 9938   0.673   3.558   8.754
  604TIP3    H1 9939   0.577   3.573   8.771
  604TIP3    H2 9940   0.707   3.650   8.767
  605TIP3   OH2 9941   1.145   3.064   9.364
  605TIP3    H1 9942   1.098   3.031   9.444
  605TIP3    H2 9943   1.167   2.980   9.321
  606TIP3   OH2 9944   1.461   3.542   9.608
  606TIP3    H1 9945   1.375   3.496   9.604
  606TIP3    H2 9946   1.458   3.600   9.529
  607TIP3   OH2 9947   1.867   3.555   8.327
  607TIP3    H1 9948   1.943   3.560   8.267
  607TIP3    H2 9949   1.822   3.640   8.313
  608TIP3   OH2 9950   0.278   2.265   9.581
  608TIP3    H1 9951   0.197   2.282   9.632
  608TIP3    H2 9952   0.307   2.184   9.626
  609TIP3   OH2 9953   0.245   3.440   9.382
  609TIP3    H1 9954   0.300   3.365   9.409
  609TIP3    H2 9955   0.253   3.499   9.460
  610TIP3   OH2 9956   0.416   3.012   8.505
  610TIP3    H1 9957   0.324   3.019   8.538
  610TIP3    H2 9958   0.405   3.029   8.410
  611TIP3   OH2 9959   1.123   2.254   9.450
  611TIP3    H1 9960   1.200   2.280   9.505
  611TIP3    H2 9961   1.096   2.168   9.488
  612TIP3   OH2 9962   1.216   2.191   8.625
  612TIP3    H1 9963   1.179   2.275   8.595
  612TIP3    H2 9964   1.260   2.216   8.709
  613TIP3   OH2 9965   0.933   2.350   8.564
  613TIP3    H1 9966   0.984   2.429   8.596
  613TIP3    H2 9967   0.880   2.332   8.643
  614TIP3   OH2 9968   1.006   2.503   9.582
  614TIP3    H1 9969   1.000   2.533   9.675
  614TIP3    H2 9970   1.026   2.408   9.589
  615TIP3   OH2 9971   0.997   2.058   8.720
  615TIP3    H1 9972   0.975   2.083   8.812
  615TIP3    H2 9973   1.076   2.114   8.705
  616TIP3   OH2 9974   0.688   3.541   8.430
  616TIP3    H1 9975   0.764   3.594   8.457
  616TIP3    H2 9976   0.637   3.534   8.512
  617TIP3   OH2 9977   0.572   2.184   8.564
  617TIP3    H1 9978   0.544   2.233   8.486
  617TIP3    H2 9979   0.658   2.148   8.534
  618TIP3   OH2 9980   1.551   2.241   9.665
  618TIP3    H1 9981   1.457   2.254   9.641
  618TIP3    H2 9982   1.598   2.278   9.588
  619TIP3   OH2 9983   1.514   2.656   9.046
  619TIP3    H1 9984   1.422   2.625   9.047
  619TIP3    H2 9985   1.560   2.588   9.100
  620TIP3   OH2 9986   0.451   3.253   8.288
  620TIP3    H1 9987   0.518   3.255   8.357
  620TIP3    H2 9988   0.483   3.183   8.226
  621TIP3   OH2 9989   1.552   3.573   9.218
  621TIP3    H1 9990   1.563   3.637   9.144
  621TIP3    H2 9991   1.644   3.562   9.246
  622TIP3   OH2 9992   0.316   1.979   9.081
  622TIP3    H1 9993   0.318   1.963   8.985
  622TIP3    H2 9994   0.300   1.888   9.115
  623TIP3   OH2 9995   0.227   3.341   8.766
  623TIP3    H1 9996   0.167   3.391   8.826
  623TIP3    H2 9997   0.199   3.372   8.677
  624TIP3   OH2 9998   0.160   3.657   9.861
  624TIP3    H1 9999   0.228   3.639   9.929
  624TIP3    H210000   0.095   3.589   9.884
  625TIP3   OH210001   0.599   3.525   9.977
  625TIP3    H110002   0.688   3.490   9.994
  625TIP3    H210003   0.577   3.478   9.894
  626TIP3   OH210004   1.237   3.412   9.898
  626TIP3    H110005   1.199   3.328   9.935
  626TIP3    H210006   1.324   3.414   9.945
  627TIP3   OH210007   0.049   3.049   9.937
  627TIP3    H110008   0.083   2.966   9.902
  627TIP3    H210009   0.036   3.100   9.854
  628TIP3   OH210010   0.788   3.018   9.844
  628TIP3    H110011   0.774   3.075   9.765
  628TIP3    H210012   0.761   2.928   9.812
  629TIP3   OH210013   1.346   3.000   9.653
  629TIP3    H110014   1.428   3.054   9.645
  629TIP3    H210015   1.282   3.073   9.655
  630TIP3   OH210016   0.251   2.701   9.857
  630TIP3    H110017   0.253   2.611   9.893
  630TIP3    H210018   0.230   2.752   9.939
  631TIP3   OH210019   0.739   2.902   8.427
  631TIP3    H110020   0.645   2.902   8.450
  631TIP3    H210021   0.746   2.821   8.372
  632TIP3   OH210022   0.566   2.634   9.567
  632TIP3    H110023   0.511   2.713   9.546
  632TIP3    H210024   0.651   2.665   9.528
  633TIP3   OH210025   1.148   2.919   9.947
  633TIP3    H110026   1.210   2.857   9.905
  633TIP3    H210027   1.080   2.860   9.982
  634TIP3   OH210028   1.685   2.813   8.155
  634TIP3    H110029   1.758   2.838   8.096
  634TIP3    H210030   1.675   2.890   8.213
  635TIP3   OH210031   0.664   2.401   9.667
  635TIP3    H110032   0.665   2.326   9.601
  635TIP3    H210033   0.641   2.478   9.610
  636TIP3   OH210034   0.682   2.198   9.488
  636TIP3    H110035   0.749   2.253   9.440
  636TIP3    H210036   0.610   2.199   9.420
  637TIP3   OH210037   0.806   2.770   9.502
  637TIP3    H110038   0.899   2.795   9.511
  637TIP3    H210039   0.769   2.850   9.458
  638TIP3   OH210040   1.251   2.504   9.987
  638TIP3    H110041   1.290   2.416   9.981
  638TIP3    H210042   1.327   2.564   9.979
  639TIP3   OH210043   1.418   2.841   9.857
  639TIP3    H110044   1.375   2.897   9.789
  639TIP3    H210045   1.505   2.828   9.815
  640TIP3   OH210046   0.501   2.438   9.912
  640TIP3    H110047   0.419   2.385   9.922
  640TIP3    H210048   0.520   2.435   9.816
  641TIP3   OH210049   0.778   1.953   9.463
  641TIP3    H110050   0.743   2.044   9.476
  641TIP3    H210051   0.696   1.904   9.444
  642TIP3   OH210052   0.860   2.399   9.856
  642TIP3    H110053   0.806   2.380   9.934
  642TIP3    H210054   0.794   2.388   9.783
  643TIP3   OH210055   1.113   2.304   9.825
  643TIP3    H110056   1.017   2.306   9.842
  643TIP3    H210057   1.146   2.261   9.906
  644TIP3   OH210058   1.301   2.166  10.001
  644TIP3    H110059   1.304   2.068   9.998
  644TIP3    H210060   1.282   2.182  10.096
  645TIP3   OH210061   0.282   2.269   9.935
  645TIP3    H110062   0.305   2.197   9.874
  645TIP3    H210063   0.244   2.221  10.012
  646TIP3   OH210064   0.733   1.917   9.741
  646TIP3    H110065   0.807   1.857   9.760
  646TIP3    H210066   0.739   1.920   9.644
  647TIP3   OH210067   0.795   2.043  10.042
  647TIP3    H110068   0.774   2.005   9.955
  647TIP3    H210069   0.746   2.128  10.039
  648TIP3   OH210070   0.213   3.183   8.372
  648TIP3    H110071   0.298   3.230   8.354
  648TIP3    H210072   0.226   3.098   8.329
  649TIP3   OH210073   0.052   3.808   8.879
  649TIP3    H110074   0.002   3.810   8.796
  649TIP3    H210075   0.018   3.729   8.924
  650TIP3   OH210076   0.082   3.538   8.937
  650TIP3    H110077   0.031   3.503   9.013
  650TIP3    H210078   0.154   3.584   8.987
  651TIP3   OH210079   1.827   3.659   9.229
  651TIP3    H110080   1.846   3.651   9.324
  651TIP3    H210081   1.773   3.740   9.227
  652TIP3   OH210082   1.773   3.583   9.495
  652TIP3    H110083   1.746   3.492   9.466
  652TIP3    H210084   1.810   3.560   9.582
  653TIP3   OH210085   1.649   3.145  10.031
  653TIP3    H110086   1.564   3.144  10.082
  653TIP3    H210087   1.694   3.222  10.072
  654TIP3   OH210088   1.782   2.961   8.530
  654TIP3    H110089   1.859   3.018   8.552
  654TIP3    H210090   1.770   2.908   8.612
  655TIP3   OH210091   1.812   2.777   8.740
  655TIP3    H110092   1.753   2.705   8.773
  655TIP3    H210093   1.865   2.792   8.821
  656TIP3   OH210094   1.764   3.061   9.194
  656TIP3    H110095   1.843   3.003   9.186
  656TIP3    H210096   1.797   3.144   9.158
  657TIP3   OH210097   1.656   3.347   9.466
  657TIP3    H110098   1.576   3.382   9.508
  657TIP3    H210099   1.619   3.321   9.378
  658TIP3   OH210100   1.874   2.749   8.364
  658TIP3    H110101   1.806   2.751   8.296
  658TIP3    H210102   1.847   2.824   8.421
  659TIP3   OH210103   1.665   2.581   8.839
  659TIP3    H110104   1.598   2.518   8.807
  659TIP3    H210105   1.618   2.619   8.917
  660TIP3   OH210106   0.132   2.876   9.195
  660TIP3    H110107   0.118   2.845   9.104
  660TIP3    H210108   0.206   2.818   9.226
  661TIP3   OH210109   1.706   2.814   9.752
  661TIP3    H110110   1.740   2.724   9.775
  661TIP3    H210111   1.784   2.859   9.716
  662TIP3   OH210112   1.798   2.568   9.809
  662TIP3    H110113   1.716   2.517   9.826
  662TIP3    H210114   1.868   2.503   9.831
  663TIP3   OH210115   1.513   2.399   8.711
  663TIP3    H110116   1.556   2.311   8.703
  663TIP3    H210117   1.556   2.447   8.639
  664TIP3   OH210118   1.655   2.471   9.196
  664TIP3    H110119   1.752   2.484   9.206
  664TIP3    H210120   1.626   2.481   9.288
  665TIP3   OH210121   1.624   2.553   9.454
  665TIP3    H110122   1.533   2.581   9.477
  665TIP3    H210123   1.673   2.638   9.446
  666TIP3   OH210124   0.078   2.445   9.902
  666TIP3    H110125   0.159   2.390   9.914
  666TIP3    H210126   0.026   2.389   9.840
  667TIP3   OH210127   1.843   1.990   9.977
  667TIP3    H110128   1.880   1.912   9.930
  667TIP3    H210129   1.836   2.054   9.904
  668TIP3   OH210130   1.604   2.137   8.678
  668TIP3    H110131   1.655   2.102   8.755
  668TIP3    H210132   1.555   2.059   8.647
  669TIP3   OH210133   0.152   2.178   9.146
  669TIP3    H110134   0.215   2.102   9.138
  669TIP3    H210135   0.210   2.253   9.168
  670TIP3   OH210136   0.016   2.508   9.201
  670TIP3    H110137   0.098   2.505   9.147
  670TIP3    H210138  -0.015   2.600   9.193
  671TIP3   OH210139   1.791   2.181   9.793
  671TIP3    H110140   1.715   2.230   9.833
  671TIP3    H210141   1.743   2.131   9.724
  672TIP3   OH210142   1.873   2.150   8.315
  672TIP3    H110143   1.812   2.090   8.269
  672TIP3    H210144   1.953   2.125   8.264
  673TIP3   OH210145   0.021   2.148   8.587
  673TIP3    H110146   0.011   2.245   8.593
  673TIP3    H210147   0.113   2.136   8.615
  674TIP3   OH210148   1.530   3.649   8.814
  674TIP3    H110149   1.610   3.627   8.764
  674TIP3    H210150   1.563   3.710   8.882
  675TIP3   OH210151   0.050   1.965   9.473
  675TIP3    H110152  -0.024   1.907   9.448
  675TIP3    H210153   0.004   2.051   9.483
  676TIP3   OH210154   0.267   3.308   9.815
  676TIP3    H110155   0.192   3.268   9.766
  676TIP3    H210156   0.238   3.305   9.907
  677TIP3   OH210157   0.565   3.466   9.513
  677TIP3    H110158   0.541   3.552   9.471
  677TIP3    H210159   0.664   3.470   9.506
  678TIP3   OH210160   0.960   3.583   9.758
  678TIP3    H110161   0.972   3.562   9.852
  678TIP3    H210162   1.043   3.630   9.739
  679TIP3   OH210163   1.195   3.753   9.702
  679TIP3    H110164   1.275   3.714   9.666
  679TIP3    H210165   1.217   3.765   9.796
  680TIP3   OH210166   1.679   1.926   9.636
  680TIP3    H110167   1.604   1.970   9.593
  680TIP3    H210168   1.685   1.842   9.586
  681TIP3   OH210169   0.298   3.770   9.519
  681TIP3    H110170   0.208   3.802   9.493
  681TIP3    H210171   0.308   3.814   9.605
  682TIP3   OH210172   0.513   3.703   9.378
  682TIP3    H110173   0.425   3.723   9.419
  682TIP3    H210174   0.532   3.786   9.329
  683TIP3   OH210175   0.984   3.647   9.314
  683TIP3    H110176   0.939   3.686   9.238
  683TIP3    H210177   1.011   3.730   9.360
  684TIP3   OH210178   1.201   3.547   9.456
  684TIP3    H110179   1.130   3.571   9.392
  684TIP3    H210180   1.265   3.617   9.430
  685TIP3   OH210181   1.418   3.728   9.399
  685TIP3    H110182   1.444   3.820   9.379
  685TIP3    H210183   1.460   3.683   9.322
  686TIP3   OH210184   0.238   3.594   9.151
  686TIP3    H110185   0.225   3.564   9.243
  686TIP3    H210186   0.306   3.530   9.122
  687TIP3   OH210187   0.439   3.431   9.047
  687TIP3    H110188   0.441   3.336   9.074
  687TIP3    H210189   0.518   3.462   9.098
  688TIP3   OH210190   0.668   3.488   9.189
  688TIP3    H110191   0.701   3.397   9.186
  688TIP3    H210192   0.693   3.518   9.278
  689TIP3   OH210193   0.952   2.040   9.002
  689TIP3    H110194   0.902   1.976   9.059
  689TIP3    H210195   1.043   2.021   9.026
  690TIP3   OH210196   1.557   1.904   9.047
  690TIP3    H110197   1.632   1.952   9.002
  690TIP3    H210198   1.480   1.948   9.006
  691TIP3   OH210199   1.739   2.012   8.890
  691TIP3    H110200   1.797   1.951   8.838
  691TIP3    H210201   1.804   2.082   8.915
  692TIP3   OH210202   0.335   1.941   8.813
  692TIP3    H110203   0.238   1.942   8.788
  692TIP3    H210204   0.357   1.846   8.799
  693TIP3   OH210205   0.728   1.843   8.812
  693TIP3    H110206   0.821   1.870   8.811
  693TIP3    H210207   0.688   1.906   8.874
  694TIP3   OH210208   1.295   1.968   8.935
  694TIP3    H110209   1.261   1.960   8.845
  694TIP3    H210210   1.252   1.889   8.977
  695TIP3   OH210211   1.424   1.914   8.511
  695TIP3    H110212   1.375   1.995   8.528
  695TIP3    H210213   1.375   1.848   8.565
  696TIP3   OH210214   0.156   3.479   8.518
  696TIP3    H110215   0.071   3.468   8.470
  696TIP3    H210216   0.173   3.574   8.509
  697TIP3   OH210217   0.857   2.105   8.491
  697TIP3    H110218   0.906   2.065   8.565
  697TIP3    H210219   0.884   2.199   8.499
  698TIP3   OH210220   1.747   3.549   8.651
  698TIP3    H110221   1.769   3.465   8.607
  698TIP3    H210222   1.741   3.610   8.575
  699TIP3   OH210223   0.277   2.044   9.764
  699TIP3    H110224   0.212   1.973   9.773
  699TIP3    H210225   0.351   2.007   9.818
  700TIP3   OH210226   0.455   1.971   9.968
  700TIP3    H110227   0.543   1.942   9.936
  700TIP3    H210228   0.419   1.885   9.998
  701TIP3   OH210229   1.287   1.895   9.972
  701TIP3    H110230   1.302   1.833  10.048
  701TIP3    H210231   1.379   1.897   9.938
  702TIP3   OH210232   1.638   3.502   9.809
  702TIP3    H110233   1.577   3.500   9.731
  702TIP3    H210234   1.610   3.587   9.848
  703TIP3   OH210235   3.113   2.858   8.817
  703TIP3    H110236   3.121   2.952   8.843
  703TIP3    H210237   3.022   2.842   8.844
  704TIP3   OH210238   2.952   2.773   9.142
  704TIP3    H110239   2.971   2.741   9.233
  704TIP3    H210240   2.884   2.711   9.115
  705TIP3   OH210241   2.172   2.745   9.305
  705TIP3    H110242   2.161   2.674   9.370
  705TIP3    H210243   2.264   2.771   9.323
  706TIP3   OH210244   3.303   3.052   9.031
  706TIP3    H110245   3.309   2.977   9.092
  706TIP3    H210246   3.327   3.125   9.091
  707TIP3   OH210247   2.297   3.232   9.118
  707TIP3    H110248   2.271   3.144   9.086
  707TIP3    H210249   2.393   3.217   9.125
  708TIP3   OH210250   1.966   2.529   8.687
  708TIP3    H110251   1.942   2.623   8.683
  708TIP3    H210252   1.884   2.492   8.724
  709TIP3   OH210253   1.970   2.756   8.957
  709TIP3    H110254   2.011   2.668   8.974
  709TIP3    H210255   2.039   2.800   8.906
  710TIP3   OH210256   3.060   3.581   9.037
  710TIP3    H110257   3.120   3.525   8.981
  710TIP3    H210258   3.013   3.512   9.084
  711TIP3   OH210259   2.778   3.088   9.230
  711TIP3    H110260   2.815   3.037   9.157
  711TIP3    H210261   2.859   3.106   9.282
  712TIP3   OH210262   3.650   2.175   9.244
  712TIP3    H110263   3.645   2.234   9.321
  712TIP3    H210264   3.740   2.196   9.213
  713TIP3   OH210265   3.161   2.488   9.287
  713TIP3    H110266   3.174   2.395   9.314
  713TIP3    H210267   3.116   2.472   9.201
  714TIP3   OH210268   2.437   2.255   8.939
  714TIP3    H110269   2.456   2.343   8.900
  714TIP3    H210270   2.388   2.214   8.864
  715TIP3   OH210271   3.179   2.302   8.849
  715TIP3    H110272   3.239   2.257   8.911
  715TIP3    H210273   3.239   2.363   8.805
  716TIP3   OH210274   2.094   2.509   9.001
  716TIP3    H110275   2.149   2.468   9.070
  716TIP3    H210276   2.147   2.489   8.921
  717TIP3   OH210277   2.565   2.692   8.990
  717TIP3    H110278   2.640   2.642   9.026
  717TIP3    H210279   2.530   2.622   8.930
  718TIP3   OH210280   3.652   2.316   9.485
  718TIP3    H110281   3.619   2.402   9.449
  718TIP3    H210282   3.710   2.347   9.557
  719TIP3   OH210283   2.328   2.184   9.369
  719TIP3    H110284   2.283   2.232   9.297
  719TIP3    H210285   2.266   2.205   9.442
  720TIP3   OH210286   2.979   3.095   8.790
  720TIP3    H110287   2.884   3.110   8.776
  720TIP3    H210288   3.008   3.182   8.757
  721TIP3   OH210289   2.553   2.965   9.343
  721TIP3    H110290   2.497   3.041   9.370
  721TIP3    H210291   2.631   3.012   9.305
  722TIP3   OH210292   3.386   2.259   9.019
  722TIP3    H110293   3.391   2.185   9.081
  722TIP3    H210294   3.480   2.284   9.015
  723TIP3   OH210295   2.276   2.367   9.160
  723TIP3    H110296   2.336   2.432   9.205
  723TIP3    H210297   2.336   2.330   9.091
  724TIP3   OH210298   2.425   3.176   9.458
  724TIP3    H110299   2.415   3.270   9.435
  724TIP3    H210300   2.334   3.158   9.494
  725TIP3   OH210301   2.032   3.116   8.563
  725TIP3    H110302   2.048   3.185   8.496
  725TIP3    H210303   2.015   3.171   8.643
  726TIP3   OH210304   3.351   3.269   9.227
  726TIP3    H110305   3.258   3.278   9.256
  726TIP3    H210306   3.363   3.358   9.193
  727TIP3   OH210307   3.374   2.101   9.347
  727TIP3    H110308   3.297   2.136   9.296
  727TIP3    H210309   3.450   2.134   9.296
  728TIP3   OH210310   2.660   1.911   9.094
  728TIP3    H110311   2.634   1.822   9.124
  728TIP3    H210312   2.579   1.961   9.122
  729TIP3   OH210313   3.232   3.439   8.889
  729TIP3    H110314   3.235   3.372   8.818
  729TIP3    H210315   3.313   3.491   8.869
  730TIP3   OH210316   3.336   3.225   8.737
  730TIP3    H110317   3.346   3.149   8.676
  730TIP3    H210318   3.326   3.176   8.820
  731TIP3   OH210319   3.468   3.115   9.612
  731TIP3    H110320   3.491   3.042   9.550
  731TIP3    H210321   3.489   3.190   9.553
  732TIP3   OH210322   2.951   2.772   8.556
  732TIP3    H110323   2.870   2.820   8.532
  732TIP3    H210324   3.007   2.841   8.596
  733TIP3   OH210325   3.686   2.744   9.375
  733TIP3    H110326   3.624   2.820   9.386
  733TIP3    H210327   3.747   2.783   9.310
  734TIP3   OH210328   3.274   2.749   8.637
  734TIP3    H110329   3.203   2.786   8.694
  734TIP3    H210330   3.337   2.723   8.707
  735TIP3   OH210331   3.291   2.632   9.605
  735TIP3    H110332   3.289   2.720   9.647
  735TIP3    H210333   3.232   2.647   9.529
  736TIP3   OH210334   2.434   2.873   8.839
  736TIP3    H110335   2.423   2.819   8.757
  736TIP3    H210336   2.499   2.818   8.888
  737TIP3   OH210337   2.564   3.209   9.102
  737TIP3    H110338   2.577   3.195   9.007
  737TIP3    H210339   2.646   3.171   9.141
  738TIP3   OH210340   2.446   2.755   9.228
  738TIP3    H110341   2.483   2.754   9.137
  738TIP3    H210342   2.501   2.824   9.271
  739TIP3   OH210343   3.103   3.328   9.300
  739TIP3    H110344   3.082   3.398   9.366
  739TIP3    H210345   3.066   3.246   9.339
  740TIP3   OH210346   2.585   3.195   9.673
  740TIP3    H110347   2.514   3.243   9.720
  740TIP3    H210348   2.539   3.176   9.588
  741TIP3   OH210349   2.278   2.830   9.563
  741TIP3    H110350   2.293   2.919   9.599
  741TIP3    H210351   2.201   2.802   9.615
  742TIP3   OH210352   2.908   3.352   8.696
  742TIP3    H110353   2.921   3.410   8.773
  742TIP3    H210354   2.864   3.412   8.634
  743TIP3   OH210355   2.396   3.374   9.767
  743TIP3    H110356   2.384   3.413   9.678
  743TIP3    H210357   2.303   3.350   9.789
  744TIP3   OH210358   2.353   2.743   8.609
  744TIP3    H110359   2.305   2.818   8.566
  744TIP3    H210360   2.323   2.671   8.554
  745TIP3   OH210361   1.977   3.043   9.493
  745TIP3    H110362   1.930   3.046   9.408
  745TIP3    H210363   2.004   2.949   9.494
  746TIP3   OH210364   1.972   3.306   9.179
  746TIP3    H110365   2.053   3.256   9.164
  746TIP3    H210366   1.992   3.352   9.261
  747TIP3   OH210367   3.743   3.373   9.777
  747TIP3    H110368   3.721   3.289   9.734
  747TIP3    H210369   3.657   3.394   9.818
  748TIP3   OH210370   2.838   3.306   9.655
  748TIP3    H110371   2.851   3.383   9.713
  748TIP3    H210372   2.745   3.281   9.675
  749TIP3   OH210373   2.893   3.637   8.613
  749TIP3    H110374   2.900   3.646   8.516
  749TIP3    H210375   2.891   3.729   8.645
  750TIP3   OH210376   2.248   3.542   8.819
  750TIP3    H110377   2.264   3.516   8.912
  750TIP3    H210378   2.172   3.486   8.796
  751TIP3   OH210379   3.156   3.591   8.628
  751TIP3    H110380   3.059   3.594   8.634
  751TIP3    H210381   3.166   3.522   8.560
  752TIP3   OH210382   3.421   2.488   9.801
  752TIP3    H110383   3.384   2.543   9.729
  752TIP3    H210384   3.415   2.398   9.762
  753TIP3   OH210385   2.193   3.164   9.589
  753TIP3    H110386   2.191   3.135   9.683
  753TIP3    H210387   2.107   3.127   9.559
  754TIP3   OH210388   2.439   2.024   9.179
  754TIP3    H110389   2.347   2.015   9.145
  754TIP3    H210390   2.426   2.099   9.240
  755TIP3   OH210391   2.912   1.992   9.504
  755TIP3    H110392   2.955   1.952   9.583
  755TIP3    H210393   2.817   1.984   9.526
  756TIP3   OH210394   3.160   2.381   9.631
  756TIP3    H110395   3.109   2.355   9.712
  756TIP3    H210396   3.196   2.468   9.657
  757TIP3   OH210397   2.450   2.500   9.310
  757TIP3    H110398   2.381   2.502   9.379
  757TIP3    H210399   2.453   2.596   9.286
  758TIP3   OH210400   2.481   2.496   8.821
  758TIP3    H110401   2.387   2.512   8.796
  758TIP3    H210402   2.513   2.456   8.738
  759TIP3   OH210403   3.030   2.512   8.654
  759TIP3    H110404   3.004   2.602   8.630
  759TIP3    H210405   3.106   2.497   8.597
  760TIP3   OH210406   2.908   2.603   9.839
  760TIP3    H110407   2.864   2.521   9.869
  760TIP3    H210408   2.979   2.614   9.905
  761TIP3   OH210409   3.065   2.501   9.037
  761TIP3    H110410   3.081   2.585   8.993
  761TIP3    H210411   3.084   2.436   8.966
  762TIP3   OH210412   2.207   2.495   9.439
  762TIP3    H110413   2.248   2.540   9.514
  762TIP3    H210414   2.162   2.419   9.481
  763TIP3   OH210415   1.906   2.218   8.934
  763TIP3    H110416   1.962   2.216   9.016
  763TIP3    H210417   1.957   2.271   8.872
  764TIP3   OH210418   3.016   2.679   9.399
  764TIP3    H110419   3.079   2.609   9.370
  764TIP3    H210420   2.958   2.629   9.460
  765TIP3   OH210421   2.764   2.246   8.894
  765TIP3    H110422   2.669   2.244   8.911
  765TIP3    H210423   2.801   2.216   8.979
  766TIP3   OH210424   2.224   2.427   8.758
  766TIP3    H110425   2.145   2.449   8.705
  766TIP3    H210426   2.245   2.335   8.730
  767TIP3   OH210427   2.522   2.421   8.563
  767TIP3    H110428   2.617   2.407   8.579
  767TIP3    H210429   2.518   2.514   8.541
  768TIP3   OH210430   3.144   2.213   9.234
  768TIP3    H110431   3.063   2.209   9.289
  768TIP3    H210432   3.120   2.159   9.157
  769TIP3   OH210433   2.433   2.582   8.314
  769TIP3    H110434   2.400   2.501   8.353
  769TIP3    H210435   2.519   2.557   8.280
  770TIP3   OH210436   3.439   3.772   9.879
  770TIP3    H110437   3.475   3.789   9.789
  770TIP3    H210438   3.515   3.807   9.928
  771TIP3   OH210439   2.209   3.002   9.833
  771TIP3    H110440   2.278   3.027   9.895
  771TIP3    H210441   2.130   2.991   9.890
  772TIP3   OH210442   2.789   2.504   9.094
  772TIP3    H110443   2.883   2.485   9.071
  772TIP3    H210444   2.768   2.436   9.161
  773TIP3   OH210445   2.298   2.157   8.727
  773TIP3    H110446   2.237   2.092   8.769
  773TIP3    H210447   2.356   2.096   8.681
  774TIP3   OH210448   2.682   2.362   9.335
  774TIP3    H110449   2.608   2.424   9.325
  774TIP3    H210450   2.747   2.414   9.385
  775TIP3   OH210451   3.516   2.956   9.409
  775TIP3    H110452   3.557   3.021   9.347
  775TIP3    H210453   3.434   2.936   9.361
  776TIP3   OH210454   3.085   2.331   8.394
  776TIP3    H110455   3.056   2.348   8.304
  776TIP3    H210456   3.164   2.389   8.403
  777TIP3   OH210457   2.847   3.019   9.592
  777TIP3    H110458   2.868   2.975   9.676
  777TIP3    H210459   2.840   3.112   9.620
  778TIP3   OH210460   3.275   2.513   8.477
  778TIP3    H110461   3.325   2.470   8.550
  778TIP3    H210462   3.263   2.603   8.513
  779TIP3   OH210463   2.283   2.958   9.064
  779TIP3    H110464   2.328   2.937   8.979
  779TIP3    H210465   2.300   2.878   9.116
  780TIP3   OH210466   1.969   2.774   9.626
  780TIP3    H110467   1.958   2.716   9.703
  780TIP3    H210468   1.909   2.737   9.559
  781TIP3   OH210469   2.689   2.746   9.786
  781TIP3    H110470   2.636   2.693   9.725
  781TIP3    H210471   2.772   2.694   9.791
  782TIP3   OH210472   3.151   3.267   9.664
  782TIP3    H110473   3.083   3.300   9.603
  782TIP3    H210474   3.120   3.309   9.747
  783TIP3   OH210475   3.645   2.500   8.522
  783TIP3    H110476   3.615   2.522   8.433
  783TIP3    H210477   3.705   2.574   8.545
  784TIP3   OH210478   3.713   3.090   9.732
  784TIP3    H110479   3.618   3.095   9.706
  784TIP3    H210480   3.757   3.070   9.647
  785TIP3   OH210481   3.478   3.323   8.512
  785TIP3    H110482   3.439   3.294   8.597
  785TIP3    H210483   3.408   3.300   8.449
  786TIP3   OH210484   3.282   2.817   9.234
  786TIP3    H110485   3.189   2.821   9.207
  786TIP3    H210486   3.312   2.737   9.185
  787TIP3   OH210487   2.472   3.281   8.849
  787TIP3    H110488   2.502   3.374   8.845
  787TIP3    H210489   2.376   3.292   8.841
  788TIP3   OH210490   2.617   3.078   8.752
  788TIP3    H110491   2.566   3.158   8.779
  788TIP3    H210492   2.557   3.008   8.783
  789TIP3   OH210493   2.697   3.468   9.469
  789TIP3    H110494   2.755   3.535   9.429
  789TIP3    H210495   2.756   3.428   9.535
  790TIP3   OH210496   2.541   3.538   8.808
  790TIP3    H110497   2.447   3.558   8.795
  790TIP3    H210498   2.570   3.624   8.842
  791TIP3   OH210499   3.018   3.064   9.374
  791TIP3    H110500   2.967   3.035   9.454
  791TIP3    H210501   3.083   2.991   9.369
  792TIP3   OH210502   3.279   3.110   8.293
  792TIP3    H110503   3.245   3.201   8.301
  792TIP3    H210504   3.309   3.113   8.201
  793TIP3   OH210505   3.353   3.552   9.600
  793TIP3    H110506   3.265   3.510   9.604
  793TIP3    H210507   3.340   3.618   9.529
  794TIP3   OH210508   2.140   2.272   9.576
  794TIP3    H110509   2.079   2.309   9.643
  794TIP3    H210510   2.122   2.177   9.591
  795TIP3   OH210511   3.389   2.988   8.592
  795TIP3    H110512   3.339   2.905   8.600
  795TIP3    H210513   3.465   2.962   8.539
  796TIP3   OH210514   2.100   3.429   9.412
  796TIP3    H110515   2.171   3.363   9.422
  796TIP3    H210516   2.123   3.492   9.483
  797TIP3   OH210517   2.257   2.949   8.465
  797TIP3    H110518   2.185   2.998   8.508
  797TIP3    H210519   2.269   3.002   8.384
  798TIP3   OH210520   2.980   2.265   9.460
  798TIP3    H110521   3.056   2.290   9.518
  798TIP3    H210522   2.957   2.176   9.492
  799TIP3   OH210523   3.061   2.189   8.636
  799TIP3    H110524   3.051   2.238   8.552
  799TIP3    H210525   3.098   2.257   8.695
  800TIP3   OH210526   2.799   2.381   8.635
  800TIP3    H110527   2.884   2.430   8.645
  800TIP3    H210528   2.792   2.334   8.720
  801TIP3   OH210529   2.884   2.503   9.566
  801TIP3    H110530   2.910   2.519   9.659
  801TIP3    H210531   2.914   2.411   9.547
  802TIP3   OH210532   2.885   2.041   8.773
  802TIP3    H110533   2.836   2.119   8.810
  802TIP3    H210534   2.960   2.088   8.727
  803TIP3   OH210535   2.520   2.227   8.346
  803TIP3    H110536   2.469   2.249   8.426
  803TIP3    H210537   2.590   2.173   8.388
  804TIP3   OH210538   3.428   2.263   9.646
  804TIP3    H110539   3.339   2.271   9.606
  804TIP3    H210540   3.487   2.281   9.571
  805TIP3   OH210541   3.342   2.609   9.062
  805TIP3    H110542   3.283   2.549   9.110
  805TIP3    H210543   3.428   2.579   9.100
  806TIP3   OH210544   3.407   3.572   9.220
  806TIP3    H110545   3.403   3.568   9.122
  806TIP3    H210546   3.503   3.557   9.236
  807TIP3   OH210547   2.187   1.973   9.113
  807TIP3    H110548   2.181   1.961   9.015
  807TIP3    H210549   2.163   1.883   9.143
  808TIP3   OH210550   2.039   3.336   8.741
  808TIP3    H110551   1.972   3.383   8.791
  808TIP3    H210552   2.041   3.390   8.658
  809TIP3   OH210553   1.996   3.657   9.869
  809TIP3    H110554   2.059   3.646   9.944
  809TIP3    H210555   1.968   3.565   9.856
  810TIP3   OH210556   2.471   3.519   9.985
  810TIP3    H110557   2.559   3.482  10.004
  810TIP3    H210558   2.451   3.473   9.901
  811TIP3   OH210559   3.108   3.387   9.898
  811TIP3    H110560   3.092   3.309   9.954
  811TIP3    H210561   3.196   3.412   9.933
  812TIP3   OH210562   1.960   3.016   9.949
  812TIP3    H110563   1.910   2.936   9.969
  812TIP3    H210564   1.922   3.043   9.862
  813TIP3   OH210565   2.450   2.979   8.155
  813TIP3    H110566   2.354   2.963   8.144
  813TIP3    H210567   2.472   3.015   8.068
  814TIP3   OH210568   2.662   3.004   9.853
  814TIP3    H110569   2.647   3.062   9.776
  814TIP3    H210570   2.673   2.914   9.812
  815TIP3   OH210571   3.215   2.997   9.633
  815TIP3    H110572   3.298   3.049   9.636
  815TIP3    H210573   3.156   3.068   9.665
  816TIP3   OH210574   2.105   2.695   9.937
  816TIP3    H110575   2.193   2.657   9.933
  816TIP3    H210576   2.114   2.756  10.014
  817TIP3   OH210577   2.608   2.873   8.429
  817TIP3    H110578   2.545   2.914   8.490
  817TIP3    H210579   2.549   2.820   8.373
  818TIP3   OH210580   2.447   2.628   9.571
  818TIP3    H110581   2.388   2.706   9.576
  818TIP3    H210582   2.524   2.672   9.528
  819TIP3   OH210583   3.031   2.919   9.948
  819TIP3    H110584   3.104   2.863   9.916
  819TIP3    H210585   2.972   2.855   9.989
  820TIP3   OH210586   2.560   2.414   9.686
  820TIP3    H110587   2.560   2.344   9.618
  820TIP3    H210588   2.521   2.491   9.639
  821TIP3   OH210589   2.556   2.204   9.504
  821TIP3    H110590   2.603   2.249   9.429
  821TIP3    H210591   2.468   2.189   9.462
  822TIP3   OH210592   2.676   2.780   9.486
  822TIP3    H110593   2.766   2.808   9.465
  822TIP3    H210594   2.625   2.856   9.452
  823TIP3   OH210595   3.206   2.472  10.010
  823TIP3    H110596   3.200   2.378   9.989
  823TIP3    H210597   3.287   2.495   9.961
  824TIP3   OH210598   3.313   2.825   9.839
  824TIP3    H110599   3.277   2.879   9.766
  824TIP3    H210600   3.408   2.816   9.814
  825TIP3   OH210601   2.392   2.448   9.904
  825TIP3    H110602   2.306   2.406   9.881
  825TIP3    H210603   2.452   2.421   9.830
  826TIP3   OH210604   2.645   1.955   9.517
  826TIP3    H110605   2.613   2.048   9.511
  826TIP3    H210606   2.573   1.911   9.470
  827TIP3   OH210607   2.762   2.384   9.925
  827TIP3    H110608   2.704   2.366  10.001
  827TIP3    H210609   2.700   2.369   9.851
  828TIP3   OH210610   3.005   2.310   9.838
  828TIP3    H110611   2.910   2.319   9.860
  828TIP3    H210612   3.037   2.256   9.913
  829TIP3   OH210613   3.182   2.164   9.989
  829TIP3    H110614   3.160   2.068   9.988
  829TIP3    H210615   3.177   2.182  10.084
  830TIP3   OH210616   2.171   2.281   9.940
  830TIP3    H110617   2.151   2.200   9.888
  830TIP3    H210618   2.150   2.251  10.031
  831TIP3   OH210619   2.640   1.910   9.813
  831TIP3    H110620   2.678   1.820   9.820
  831TIP3    H210621   2.649   1.922   9.717
  832TIP3   OH210622   2.660   2.045  10.055
  832TIP3    H110623   2.649   2.003   9.967
  832TIP3    H210624   2.629   2.136  10.038
  833TIP3   OH210625   2.096   3.161   8.291
  833TIP3    H110626   2.117   3.155   8.196
  833TIP3    H210627   2.026   3.094   8.297
  834TIP3   OH210628   1.887   3.728   8.784
  834TIP3    H110629   1.831   3.662   8.739
  834TIP3    H210630   1.912   3.675   8.862
  835TIP3   OH210631   1.950   3.545   8.981
  835TIP3    H110632   1.906   3.462   9.009
  835TIP3    H210633   1.954   3.590   9.068
  836TIP3   OH210634   3.673   3.551   9.229
  836TIP3    H110635   3.716   3.597   9.303
  836TIP3    H210636   3.716   3.586   9.150
  837TIP3   OH210637   3.652   3.574   9.538
  837TIP3    H110638   3.620   3.496   9.488
  837TIP3    H210639   3.676   3.533   9.623
  838TIP3   OH210640   3.526   3.178  10.042
  838TIP3    H110641   3.443   3.171  10.094
  838TIP3    H210642   3.574   3.252  10.085
  839TIP3   OH210643   3.694   2.786   8.685
  839TIP3    H110644   3.618   2.760   8.742
  839TIP3    H210645   3.716   2.875   8.716
  840TIP3   OH210646   3.637   3.074   9.211
  840TIP3    H110647   3.705   3.006   9.191
  840TIP3    H210648   3.688   3.156   9.194
  841TIP3   OH210649   3.526   3.346   9.464
  841TIP3    H110650   3.449   3.390   9.506
  841TIP3    H210651   3.487   3.311   9.382
  842TIP3   OH210652   3.598   2.501   8.166
  842TIP3    H110653   3.667   2.506   8.097
  842TIP3    H210654   3.528   2.465   8.111
  843TIP3   OH210655   3.479   2.648   8.811
  843TIP3    H110656   3.476   2.551   8.799
  843TIP3    H210657   3.442   2.655   8.902
  844TIP3   OH210658   1.969   2.878   9.217
  844TIP3    H110659   1.952   2.837   9.129
  844TIP3    H210660   2.060   2.842   9.236
  845TIP3   OH210661   3.594   2.825   9.764
  845TIP3    H110662   3.636   2.741   9.797
  845TIP3    H210663   3.671   2.874   9.729
  846TIP3   OH210664   3.681   2.572   9.830
  846TIP3    H110665   3.596   2.522   9.831
  846TIP3    H210666   3.746   2.500   9.837
  847TIP3   OH210667   3.437   2.395   8.669
  847TIP3    H110668   3.451   2.298   8.680
  847TIP3    H210669   3.511   2.415   8.609
  848TIP3   OH210670   3.542   2.488   9.184
  848TIP3    H110671   3.640   2.492   9.189
  848TIP3    H210672   3.524   2.510   9.277
  849TIP3   OH210673   3.511   2.539   9.451
  849TIP3    H110674   3.428   2.562   9.498
  849TIP3    H210675   3.559   2.624   9.442
  850TIP3   OH210676   1.972   2.374   9.806
  850TIP3    H110677   2.040   2.360   9.875
  850TIP3    H210678   1.916   2.293   9.816
  851TIP3   OH210679   3.742   1.991   9.981
  851TIP3    H110680   3.782   1.913   9.937
  851TIP3    H210681   3.727   2.052   9.906
  852TIP3   OH210682   3.496   2.132   8.658
  852TIP3    H110683   3.534   2.103   8.744
  852TIP3    H210684   3.455   2.049   8.626
  853TIP3   OH210685   2.062   2.202   9.164
  853TIP3    H110686   2.110   2.117   9.152
  853TIP3    H210687   2.135   2.266   9.168
  854TIP3   OH210688   1.918   2.510   9.223
  854TIP3    H110689   1.956   2.471   9.143
  854TIP3    H210690   1.993   2.562   9.256
  855TIP3   OH210691   3.644   2.157   9.788
  855TIP3    H110692   3.560   2.201   9.760
  855TIP3    H210693   3.643   2.083   9.724
  856TIP3   OH210694   1.932   2.107   8.586
  856TIP3    H110695   1.844   2.101   8.626
  856TIP3    H210696   1.910   2.138   8.495
  857TIP3   OH210697   3.438   3.616   8.864
  857TIP3    H110698   3.497   3.579   8.795
  857TIP3    H210699   3.454   3.711   8.855
  858TIP3   OH210700   1.912   1.993   9.465
  858TIP3    H110701   1.848   1.940   9.514
  858TIP3    H210702   1.856   2.062   9.425
  859TIP3   OH210703   2.140   3.292   9.855
  859TIP3    H110704   2.054   3.299   9.811
  859TIP3    H210705   2.117   3.279   9.947
  860TIP3   OH210706   2.429   3.460   9.518
  860TIP3    H110707   2.416   3.549   9.478
  860TIP3    H210708   2.527   3.453   9.513
  861TIP3   OH210709   2.825   3.576   9.771
  861TIP3    H110710   2.828   3.552   9.866
  861TIP3    H210711   2.913   3.617   9.761
  862TIP3   OH210712   3.048   3.753   9.702
  862TIP3    H110713   3.123   3.713   9.656
  862TIP3    H210714   3.088   3.775   9.789
  863TIP3   OH210715   3.570   1.931   9.641
  863TIP3    H110716   3.508   1.974   9.581
  863TIP3    H210717   3.571   1.839   9.606
  864TIP3   OH210718   2.176   3.762   9.522
  864TIP3    H110719   2.093   3.800   9.485
  864TIP3    H210720   2.171   3.795   9.614
  865TIP3   OH210721   2.399   3.698   9.404
  865TIP3    H110722   2.311   3.717   9.445
  865TIP3    H210723   2.401   3.765   9.332
  866TIP3   OH210724   2.864   3.657   9.310
  866TIP3    H110725   2.799   3.707   9.259
  866TIP3    H210726   2.894   3.725   9.375
  867TIP3   OH210727   3.077   3.554   9.457
  867TIP3    H110728   3.014   3.576   9.385
  867TIP3    H210729   3.148   3.616   9.432
  868TIP3   OH210730   3.283   3.732   9.400
  868TIP3    H110731   3.307   3.824   9.373
  868TIP3    H210732   3.327   3.683   9.327
  869TIP3   OH210733   2.142   3.622   9.215
  869TIP3    H110734   2.092   3.556   9.267
  869TIP3    H210735   2.219   3.571   9.182
  870TIP3   OH210736   2.337   3.492   9.074
  870TIP3    H110737   2.325   3.396   9.091
  870TIP3    H210738   2.432   3.503   9.098
  871TIP3   OH210739   2.584   3.508   9.170
  871TIP3    H110740   2.623   3.419   9.159
  871TIP3    H210741   2.587   3.519   9.266
  872TIP3   OH210742   2.867   2.066   9.068
  872TIP3    H110743   2.789   2.008   9.083
  872TIP3    H210744   2.907   2.024   8.990
  873TIP3   OH210745   3.444   1.910   9.055
  873TIP3    H110746   3.511   1.970   9.015
  873TIP3    H210747   3.360   1.948   9.020
  874TIP3   OH210748   3.600   2.034   8.887
  874TIP3    H110749   3.658   1.965   8.848
  874TIP3    H210750   3.666   2.105   8.907
  875TIP3   OH210751   2.169   1.938   8.835
  875TIP3    H110752   2.086   1.929   8.784
  875TIP3    H210753   2.209   1.850   8.817
  876TIP3   OH210754   2.094   1.921   8.450
  876TIP3    H110755   2.087   1.940   8.355
  876TIP3    H210756   2.033   1.985   8.492
  877TIP3   OH210757   2.603   1.908   8.821
  877TIP3    H110758   2.676   1.951   8.774
  877TIP3    H210759   2.636   1.909   8.912
  878TIP3   OH210760   3.182   1.960   8.970
  878TIP3    H110761   3.140   1.978   8.885
  878TIP3    H210762   3.140   1.874   8.995
  879TIP3   OH210763   3.350   1.927   8.523
  879TIP3    H110764   3.281   1.989   8.550
  879TIP3    H210765   3.297   1.844   8.529
  880TIP3   OH210766   2.038   3.504   8.530
  880TIP3    H110767   1.960   3.509   8.470
  880TIP3    H210768   2.087   3.584   8.503
  881TIP3   OH210769   2.709   2.143   8.541
  881TIP3    H110770   2.759   2.096   8.608
  881TIP3    H210771   2.752   2.232   8.543
  882TIP3   OH210772   3.570   3.554   8.638
  882TIP3    H110773   3.543   3.471   8.591
  882TIP3    H210774   3.542   3.624   8.574
  883TIP3   OH210775   2.121   2.021   9.795
  883TIP3    H110776   2.072   1.936   9.802
  883TIP3    H210777   2.200   2.002   9.849
  884TIP3   OH210778   2.333   1.971   9.978
  884TIP3    H110779   2.426   1.974   9.950
  884TIP3    H210780   2.326   1.876   9.998
  885TIP3   OH210781   3.148   1.885   9.959
  885TIP3    H110782   3.155   1.823  10.035
  885TIP3    H210783   3.243   1.897   9.939
  886TIP3   OH210784   3.517   3.509   9.806
  886TIP3    H110785   3.468   3.513   9.721
  886TIP3    H210786   3.486   3.591   9.848
  887TIP3   OH210787   4.038   2.756   9.350
  887TIP3    H110788   4.000   2.703   9.424
  887TIP3    H210789   4.120   2.789   9.393
  888TIP3   OH210790   4.182   3.235   9.191
  888TIP3    H110791   4.118   3.168   9.160
  888TIP3    H210792   4.264   3.183   9.175
  889TIP3   OH210793   3.832   2.561   8.719
  889TIP3    H110794   3.787   2.648   8.712
  889TIP3    H210795   3.756   2.502   8.725
  890TIP3   OH210796   3.905   2.772   8.989
  890TIP3    H110797   3.918   2.675   8.983
  890TIP3    H210798   3.920   2.798   8.898
  891TIP3   OH210799   4.276   2.251   8.977
  891TIP3    H110800   4.371   2.274   8.965
  891TIP3    H210801   4.253   2.210   8.890
  892TIP3   OH210802   3.964   2.516   9.027
  892TIP3    H110803   4.041   2.508   9.086
  892TIP3    H210804   3.991   2.452   8.958
  893TIP3   OH210805   4.216   2.166   9.347
  893TIP3    H110806   4.184   2.227   9.278
  893TIP3    H210807   4.151   2.181   9.417
  894TIP3   OH210808   4.410   2.938   9.368
  894TIP3    H110809   4.351   3.016   9.372
  894TIP3    H210810   4.470   2.959   9.292
  895TIP3   OH210811   4.162   2.388   9.191
  895TIP3    H110812   4.232   2.438   9.236
  895TIP3    H210813   4.209   2.353   9.112
  896TIP3   OH210814   4.299   3.178   9.448
  896TIP3    H110815   4.256   3.226   9.376
  896TIP3    H210816   4.225   3.174   9.511
  897TIP3   OH210817   3.833   3.108   8.533
  897TIP3    H110818   3.855   3.145   8.445
  897TIP3    H210819   3.883   3.162   8.596
  898TIP3   OH210820   4.338   2.845   8.878
  898TIP3    H110821   4.314   2.826   8.785
  898TIP3    H210822   4.409   2.780   8.895
  899TIP3   OH210823   4.414   3.115   9.112
  899TIP3    H110824   4.412   3.159   9.024
  899TIP3    H210825   4.505   3.139   9.139
  900TIP3   OH210826   4.354   2.734   9.209
  900TIP3    H110827   4.360   2.788   9.129
  900TIP3    H210828   4.383   2.799   9.276
  901TIP3   OH210829   4.500   3.203   9.699
  901TIP3    H110830   4.425   3.266   9.699
  901TIP3    H210831   4.491   3.159   9.614
  902TIP3   OH210832   4.166   2.825   9.581
  902TIP3    H110833   4.173   2.922   9.585
  902TIP3    H210834   4.086   2.805   9.634
  903TIP3   OH210835   4.293   3.375   9.783
  903TIP3    H110836   4.284   3.416   9.694
  903TIP3    H210837   4.199   3.360   9.805
  904TIP3   OH210838   4.270   2.724   8.616
  904TIP3    H110839   4.290   2.728   8.521
  904TIP3    H210840   4.232   2.636   8.627
  905TIP3   OH210841   3.835   3.042   9.501
  905TIP3    H110842   3.798   3.032   9.412
  905TIP3    H210843   3.871   2.951   9.516
  906TIP3   OH210844   3.830   3.288   9.166
  906TIP3    H110845   3.923   3.283   9.145
  906TIP3    H210846   3.832   3.348   9.242
  907TIP3   OH210847   4.137   3.534   8.831
  907TIP3    H110848   4.171   3.514   8.921
  907TIP3    H210849   4.079   3.455   8.821
  908TIP3   OH210850   4.066   3.145   9.600
  908TIP3    H110851   4.072   3.100   9.688
  908TIP3    H210852   3.977   3.120   9.568
  909TIP3   OH210853   4.319   1.940   9.171
  909TIP3    H110854   4.225   1.950   9.144
  909TIP3    H210855   4.330   2.019   9.225
  910TIP3   OH210856   4.267   2.547   9.394
  910TIP3    H110857   4.172   2.572   9.399
  910TIP3    H210858   4.302   2.606   9.322
  911TIP3   OH210859   4.308   2.463   8.801
  911TIP3    H110860   4.260   2.408   8.865
  911TIP3    H210861   4.338   2.397   8.736
  912TIP3   OH210862   4.035   2.541   9.522
  912TIP3    H110863   4.121   2.538   9.567
  912TIP3    H210864   4.025   2.446   9.501
  913TIP3   OH210865   4.315   2.333   8.196
  913TIP3    H110866   4.313   2.279   8.276
  913TIP3    H210867   4.237   2.303   8.147
  914TIP3   OH210868   3.778   2.224   8.921
  914TIP3    H110869   3.831   2.220   9.003
  914TIP3    H210870   3.834   2.280   8.864
  915TIP3   OH210871   3.843   2.330   8.448
  915TIP3    H110872   3.897   2.390   8.394
  915TIP3    H210873   3.766   2.387   8.467
  916TIP3   OH210874   4.000   2.373   8.805
  916TIP3    H110875   3.952   2.450   8.766
  916TIP3    H210876   4.008   2.316   8.727
  917TIP3   OH210877   4.428   2.406   8.540
  917TIP3    H110878   4.478   2.477   8.586
  917TIP3    H210879   4.370   2.462   8.483
  918TIP3   OH210880   4.314   2.558   8.358
  918TIP3    H110881   4.344   2.502   8.284
  918TIP3    H210882   4.289   2.637   8.305
  919TIP3   OH210883   4.059   3.045   9.847
  919TIP3    H110884   4.139   3.047   9.905
  919TIP3    H210885   3.990   3.017   9.910
  920TIP3   OH210886   4.197   2.117   8.749
  920TIP3    H110887   4.127   2.081   8.809
  920TIP3    H210888   4.204   2.043   8.687
  921TIP3   OH210889   4.132   2.972   9.040
  921TIP3    H110890   4.222   2.965   9.000
  921TIP3    H210891   4.103   2.880   9.037
  922TIP3   OH210892   3.866   2.794   9.607
  922TIP3    H110893   3.863   2.739   9.688
  922TIP3    H210894   3.815   2.740   9.545
  923TIP3   OH210895   4.359   3.269   8.866
  923TIP3    H110896   4.400   3.328   8.801
  923TIP3    H210897   4.271   3.257   8.827
  924TIP3   OH210898   4.406   3.574   8.727
  924TIP3    H110899   4.315   3.566   8.763
  924TIP3    H210900   4.461   3.563   8.808
  925TIP3   OH210901   4.023   2.255   9.565
  925TIP3    H110902   3.968   2.302   9.631
  925TIP3    H210903   3.997   2.164   9.585
  926TIP3   OH210904   3.961   3.410   9.393
  926TIP3    H110905   4.027   3.343   9.416
  926TIP3    H210906   3.970   3.470   9.469
  927TIP3   OH210907   4.393   3.547   8.463
  927TIP3    H110908   4.389   3.642   8.447
  927TIP3    H210909   4.397   3.543   8.561
  928TIP3   OH210910   4.328   2.144   8.395
  928TIP3    H110911   4.280   2.205   8.453
  928TIP3    H210912   4.401   2.125   8.459
  929TIP3   OH210913   4.140   3.227   8.315
  929TIP3    H110914   4.192   3.270   8.385
  929TIP3    H210915   4.198   3.150   8.297
  930TIP3   OH210916   3.930   2.518   8.226
  930TIP3    H110917   3.995   2.574   8.182
  930TIP3    H210918   3.897   2.462   8.154
  931TIP3   OH210919   4.059   1.961   9.114
  931TIP3    H110920   4.057   1.943   9.017
  931TIP3    H210921   4.003   1.889   9.148
  932TIP3   OH210922   3.961   3.332   8.782
  932TIP3    H110923   3.889   3.375   8.832
  932TIP3    H210924   3.945   3.370   8.693
  933TIP3   OH210925   3.885   3.651   9.858
  933TIP3    H110926   3.968   3.619   9.897
  933TIP3    H210927   3.842   3.565   9.841
  934TIP3   OH210928   4.402   3.500  10.003
  934TIP3    H110929   4.432   3.422  10.052
  934TIP3    H210930   4.361   3.458   9.924
  935TIP3   OH210931   3.827   3.070   9.982
  935TIP3    H110932   3.760   3.013  10.024
  935TIP3    H210933   3.780   3.091   9.898
  936TIP3   OH210934   3.976   2.709   9.895
  936TIP3    H110935   4.056   2.655   9.892
  936TIP3    H210936   3.989   2.759   9.978
  937TIP3   OH210937   4.344   2.622   9.653
  937TIP3    H110938   4.290   2.701   9.630
  937TIP3    H210939   4.355   2.584   9.563
  938TIP3   OH210940   4.415   2.299   9.728
  938TIP3    H110941   4.434   2.255   9.642
  938TIP3    H210942   4.356   2.371   9.700
  939TIP3   OH210943   4.445   2.218   9.477
  939TIP3    H110944   4.491   2.259   9.401
  939TIP3    H210945   4.357   2.205   9.434
  940TIP3   OH210946   4.263   2.519   9.963
  940TIP3    H110947   4.190   2.460   9.935
  940TIP3    H210948   4.326   2.519   9.889
  941TIP3   OH210949   4.075   2.320   9.909
  941TIP3    H110950   4.095   2.241   9.857
  941TIP3    H210951   4.067   2.283  10.000
  942TIP3   OH210952   3.877   3.187   8.275
  942TIP3    H110953   3.974   3.202   8.286
  942TIP3    H210954   3.867   3.179   8.180
  943TIP3   OH210955   3.757   3.697   8.775
  943TIP3    H110956   3.695   3.641   8.723
  943TIP3    H210957   3.776   3.633   8.848
  944TIP3   OH210958   3.822   3.515   8.967
  944TIP3    H110959   3.784   3.435   9.010
  944TIP3    H210960   3.888   3.544   9.035
  945TIP3   OH210961   3.845   2.897   9.216
  945TIP3    H110962   3.852   2.851   9.129
  945TIP3    H210963   3.934   2.874   9.250
  946TIP3   OH210964   3.827   2.350   9.790
  946TIP3    H110965   3.894   2.335   9.859
  946TIP3    H210966   3.770   2.271   9.803
  947TIP3   OH210967   3.936   2.200   9.161
  947TIP3    H110968   3.985   2.114   9.155
  947TIP3    H210969   4.009   2.264   9.168
  948TIP3   OH210970   3.798   2.510   9.226
  948TIP3    H110971   3.856   2.493   9.149
  948TIP3    H210972   3.845   2.583   9.268
  949TIP3   OH210973   3.768   2.116   8.591
  949TIP3    H110974   3.684   2.157   8.616
  949TIP3    H210975   3.807   2.185   8.533
  950TIP3   OH210976   3.798   1.995   9.465
  950TIP3    H110977   3.727   1.950   9.516
  950TIP3    H210978   3.750   2.052   9.403
  951TIP3   OH210979   4.007   3.317   9.868
  951TIP3    H110980   3.920   3.343   9.831
  951TIP3    H210981   3.997   3.220   9.869
  952TIP3   OH210982   4.284   3.446   9.525
  952TIP3    H110983   4.281   3.538   9.490
  952TIP3    H210984   4.368   3.418   9.488
  953TIP3   OH210985   4.043   3.737   9.492
  953TIP3    H110986   3.967   3.785   9.450
  953TIP3    H210987   4.037   3.775   9.581
  954TIP3   OH210988   4.274   3.670   9.399
  954TIP3    H110989   4.187   3.712   9.418
  954TIP3    H210990   4.303   3.715   9.317
  955TIP3   OH210991   4.002   3.548   9.160
  955TIP3    H110992   3.995   3.496   9.243
  955TIP3    H210993   4.095   3.528   9.133
  956TIP3   OH210994   4.228   3.462   9.063
  956TIP3    H110995   4.218   3.371   9.100
  956TIP3    H210996   4.313   3.482   9.108
  957TIP3   OH210997   4.453   3.474   9.186
  957TIP3    H110998   4.506   3.393   9.205
  957TIP3    H210999   4.493   3.545   9.240
  958TIP3   OH211000   4.024   1.922   8.849
  958TIP3    H111001   3.931   1.909   8.821
  958TIP3    H211002   4.068   1.841   8.815
  959TIP3   OH211003   3.910   1.931   8.422
  959TIP3    H111004   3.914   2.026   8.408
  959TIP3    H211005   3.858   1.934   8.505
  960TIP3   OH211006   3.898   3.500   8.563
  960TIP3    H111007   3.814   3.541   8.537
  960TIP3    H211008   3.962   3.570   8.545
  961TIP3   OH211009   3.997   2.017   9.783
  961TIP3    H111010   3.954   1.931   9.785
  961TIP3    H211011   4.065   2.005   9.853
  962TIP3   OH211012   4.211   1.968   9.969
  962TIP3    H111013   4.303   1.945   9.947
  962TIP3    H211014   4.177   1.881  10.003
  963TIP3   OH211015   0.103  -0.017   8.727
  963TIP3    H111016   0.083   0.079   8.718
  963TIP3    H211017   0.062  -0.040   8.812
  964TIP3   OH211018   1.759   3.992   9.312
  964TIP3    H111019   1.765   4.081   9.354
  964TIP3    H211020   1.802   4.010   9.227
  965TIP3   OH211021   1.293   4.360   9.285
  965TIP3    H111022   1.284   4.264   9.271
  965TIP3    H211023   1.217   4.394   9.237
  966TIP3   OH211024   0.560   4.124   8.920
  966TIP3    H111025   0.573   4.219   8.900
  966TIP3    H211026   0.499   4.099   8.848
  967TIP3   OH211027   1.272   4.191   8.817
  967TIP3    H111028   1.347   4.157   8.873
  967TIP3    H211029   1.322   4.240   8.749
  968TIP3   OH211030   0.261   4.361   9.021
  968TIP3    H111031   0.323   4.308   9.075
  968TIP3    H211032   0.271   4.314   8.935
  969TIP3   OH211033   1.771   4.205   9.487
  969TIP3    H111034   1.712   4.264   9.435
  969TIP3    H211035   1.809   4.269   9.549
  970TIP3   OH211036   0.389   4.050   9.367
  970TIP3    H111037   0.380   4.118   9.297
  970TIP3    H211038   0.346   4.093   9.444
  971TIP3   OH211039   1.493   4.133   8.962
  971TIP3    H111040   1.504   4.071   9.036
  971TIP3    H211041   1.561   4.198   8.986
  972TIP3   OH211042   0.428   4.216   9.160
  972TIP3    H111043   0.496   4.270   9.207
  972TIP3    H211044   0.479   4.179   9.085
  973TIP3   OH211045   1.470   3.997   9.349
  973TIP3    H111046   1.401   4.027   9.286
  973TIP3    H211047   1.551   3.991   9.295
  974TIP3   OH211048   0.792   3.821   9.112
  974TIP3    H111049   0.754   3.743   9.069
  974TIP3    H211050   0.709   3.864   9.145
  975TIP3   OH211051   1.676   3.745   8.471
  975TIP3    H111052   1.584   3.740   8.504
  975TIP3    H211053   1.657   3.775   8.382
  976TIP3   OH211054   1.519   4.353   9.841
  976TIP3    H111055   1.475   4.386   9.761
  976TIP3    H211056   1.533   4.259   9.817
  977TIP3   OH211057   0.557   3.920   9.202
  977TIP3    H111058   0.473   3.894   9.154
  977TIP3    H211059   0.519   3.972   9.275
  978TIP3   OH211060   1.053   3.842   9.486
  978TIP3    H111061   1.096   3.802   9.566
  978TIP3    H211062   0.958   3.833   9.507
  979TIP3   OH211063   1.302   4.263   9.649
  979TIP3    H111064   1.224   4.239   9.706
  979TIP3    H211065   1.255   4.305   9.575
  980TIP3   OH211066   0.581   4.360   9.335
  980TIP3    H111067   0.511   4.383   9.401
  980TIP3    H211068   0.594   4.451   9.298
  981TIP3   OH211069   0.543   4.390   8.856
  981TIP3    H111070   0.487   4.359   8.782
  981TIP3    H211071   0.621   4.433   8.813
  982TIP3   OH211072   1.132  -0.003   8.712
  982TIP3    H111073   1.082   0.078   8.687
  982TIP3    H211074   1.155  -0.042   8.626
  983TIP3   OH211075   1.039   4.448   9.836
  983TIP3    H111076   1.017   4.379   9.902
  983TIP3    H211077   1.128   4.473   9.865
  984TIP3   OH211078   1.134   4.378   8.960
  984TIP3    H111079   1.126   4.411   8.867
  984TIP3    H211080   1.186   4.296   8.944
  985TIP3   OH211081   0.380   4.431   9.502
  985TIP3    H111082   0.300   4.485   9.520
  985TIP3    H211083   0.346   4.344   9.530
  986TIP3   OH211084   0.052   4.135   8.884
  986TIP3    H111085   0.086   4.080   8.959
  986TIP3    H211086   0.051   4.070   8.812
  987TIP3   OH211087   0.159   4.151   8.457
  987TIP3    H111088   0.254   4.168   8.470
  987TIP3    H211089   0.142   4.198   8.373
  988TIP3   OH211090   0.852   4.120   8.971
  988TIP3    H111091   0.758   4.133   8.951
  988TIP3    H211092   0.849   4.073   9.057
  989TIP3   OH211093   0.303   4.247   8.767
  989TIP3    H111094   0.208   4.248   8.748
  989TIP3    H211095   0.331   4.162   8.726
  990TIP3   OH211096   0.688   4.262   8.621
  990TIP3    H111097   0.782   4.272   8.645
  990TIP3    H211098   0.658   4.351   8.602
  991TIP3   OH211099   1.251   4.092   9.210
  991TIP3    H111100   1.203   4.070   9.293
  991TIP3    H211101   1.216   4.025   9.148
  992TIP3   OH211102   0.443   4.358   8.380
  992TIP3    H111103   0.371   4.344   8.315
  992TIP3    H211104   0.434   4.453   8.396
  993TIP3   OH211105   0.972   4.390   9.164
  993TIP3    H111106   1.022   4.385   9.079
  993TIP3    H211107   0.947   4.297   9.176
  994TIP3   OH211108   0.415   4.006   8.694
  994TIP3    H111109   0.369   3.928   8.735
  994TIP3    H211110   0.506   3.972   8.688
  995TIP3   OH211111   0.817   4.214   9.300
  995TIP3    H111112   0.753   4.288   9.296
  995TIP3    H211113   0.879   4.248   9.368
  996TIP3   OH211114   1.230   4.140   8.405
  996TIP3    H111115   1.260   4.130   8.314
  996TIP3    H211116   1.216   4.237   8.409
  997TIP3   OH211117   1.260   4.397   8.479
  997TIP3    H111118   1.326   4.335   8.518
  997TIP3    H211119   1.316   4.477   8.470
  998TIP3   OH211120   0.303   4.169   9.589
  998TIP3    H111121   0.239   4.214   9.649
  998TIP3    H211122   0.310   4.082   9.632
  999TIP3   OH211123   1.185   4.070   9.473
  999TIP3    H111124   1.267   4.045   9.516
  999TIP3    H211125   1.125   3.995   9.495
 1000TIP3   OH211126   1.217   3.990   8.647
 1000TIP3    H111127   1.197   4.041   8.566
 1000TIP3    H211128   1.247   4.062   8.707
 1001TIP3   OH211129   0.966   4.242   8.704
 1001TIP3    H111130   1.017   4.324   8.719
 1001TIP3    H211131   0.958   4.207   8.794
 1002TIP3   OH211132   0.986   4.283   9.545
 1002TIP3    H111133   0.960   4.255   9.634
 1002TIP3    H211134   1.060   4.222   9.527
 1003TIP3   OH211135   0.992   3.925   8.785
 1003TIP3    H111136   0.973   4.011   8.828
 1003TIP3    H211137   1.075   3.947   8.737
 1004TIP3   OH211138   0.672   4.072   8.428
 1004TIP3    H111139   0.658   4.153   8.482
 1004TIP3    H211140   0.688   4.006   8.496
 1005TIP3   OH211141   1.561   4.126   9.685
 1005TIP3    H111142   1.466   4.134   9.665
 1005TIP3    H211143   1.602   4.174   9.611
 1006TIP3   OH211144   0.236   4.336   8.199
 1006TIP3    H111145   0.246   4.426   8.162
 1006TIP3    H211146   0.143   4.346   8.230
 1007TIP3   OH211147   0.331   3.831   9.095
 1007TIP3    H111148   0.314   3.822   8.999
 1007TIP3    H211149   0.291   3.747   9.126
 1008TIP3   OH211150   0.653   4.214   9.716
 1008TIP3    H111151   0.657   4.151   9.641
 1008TIP3    H211152   0.621   4.295   9.673
 1009TIP3   OH211153   0.640   4.053   9.468
 1009TIP3    H111154   0.699   4.106   9.411
 1009TIP3    H211155   0.551   4.085   9.445
 1010TIP3   OH211156   1.297   4.328  10.025
 1010TIP3    H111157   1.270   4.242   9.988
 1010TIP3    H211158   1.394   4.320  10.026
 1011TIP3   OH211159   0.514   4.326   9.930
 1011TIP3    H111160   0.431   4.271   9.937
 1011TIP3    H211161   0.565   4.283   9.859
 1012TIP3   OH211162   0.785   3.805   9.478
 1012TIP3    H111163   0.728   3.885   9.468
 1012TIP3    H211164   0.723   3.733   9.458
 1013TIP3   OH211165   0.869   4.219   9.897
 1013TIP3    H111166   0.824   4.217   9.982
 1013TIP3    H211167   0.794   4.227   9.834
 1014TIP3   OH211168   1.115   4.160   9.818
 1014TIP3    H111169   1.024   4.185   9.848
 1014TIP3    H211170   1.141   4.096   9.887
 1015TIP3   OH211171   1.274   4.027  10.010
 1015TIP3    H111172   1.287   3.930  10.000
 1015TIP3    H211173   1.286   4.039  10.105
 1016TIP3   OH211174   0.298   4.161   9.950
 1016TIP3    H111175   0.299   4.093   9.880
 1016TIP3    H211176   0.237   4.121  10.015
 1017TIP3   OH211177   0.738   3.796   9.762
 1017TIP3    H111178   0.814   3.734   9.770
 1017TIP3    H211179   0.744   3.816   9.667
 1018TIP3   OH211180   0.838   3.916  10.006
 1018TIP3    H111181   0.796   3.867   9.933
 1018TIP3    H211182   0.779   3.995  10.007
 1019TIP3   OH211183   1.467   4.250   8.617
 1019TIP3    H111184   1.514   4.167   8.639
 1019TIP3    H211185   1.534   4.317   8.638
 1020TIP3   OH211186   1.675   4.237   9.179
 1020TIP3    H111187   1.755   4.294   9.184
 1020TIP3    H211188   1.609   4.294   9.222
 1021TIP3   OH211189   1.601   4.408   9.436
 1021TIP3    H111190   1.508   4.380   9.438
 1021TIP3    H211191   1.585   4.495   9.395
 1022TIP3   OH211192   0.146   4.301   9.759
 1022TIP3    H111193   0.182   4.283   9.849
 1022TIP3    H211194   0.063   4.250   9.760
 1023TIP3   OH211195   1.825   3.854   9.977
 1023TIP3    H111196   1.873   3.782   9.930
 1023TIP3    H211197   1.833   3.926   9.911
 1024TIP3   OH211198   1.641   4.020   8.631
 1024TIP3    H111199   1.664   3.992   8.723
 1024TIP3    H211200   1.575   3.952   8.608
 1025TIP3   OH211201   0.157   4.036   9.109
 1025TIP3    H111202   0.222   3.964   9.126
 1025TIP3    H211203   0.200   4.118   9.138
 1026TIP3   OH211204   0.014   4.349   9.136
 1026TIP3    H111205   0.099   4.354   9.088
 1026TIP3    H211206  -0.023   4.438   9.132
 1027TIP3   OH211207   1.816   4.076   9.834
 1027TIP3    H111208   1.736   4.101   9.885
 1027TIP3    H211209   1.775   4.047   9.751
 1028TIP3   OH211210   0.044   4.000   8.649
 1028TIP3    H111211  -0.030   3.973   8.591
 1028TIP3    H211212   0.103   4.043   8.583
 1029TIP3   OH211213   0.046   3.821   9.451
 1029TIP3    H111214  -0.034   3.845   9.498
 1029TIP3    H211215   0.048   3.892   9.386
 1030TIP3   OH211216   1.702   3.815   9.646
 1030TIP3    H111217   1.658   3.882   9.591
 1030TIP3    H211218   1.696   3.735   9.590
 1031TIP3   OH211219   1.076   3.912   9.081
 1031TIP3    H111220   0.994   3.909   9.131
 1031TIP3    H211221   1.052   3.862   9.001
 1032TIP3   OH211222   1.574   3.786   9.061
 1032TIP3    H111223   1.621   3.845   8.998
 1032TIP3    H211224   1.483   3.786   9.023
 1033TIP3   OH211225   1.731   3.917   8.893
 1033TIP3    H111226   1.793   3.851   8.854
 1033TIP3    H211227   1.794   3.988   8.919
 1034TIP3   OH211228   0.312   3.798   8.821
 1034TIP3    H111229   0.214   3.792   8.820
 1034TIP3    H211230   0.342   3.704   8.818
 1035TIP3   OH211231   0.738   3.828   8.798
 1035TIP3    H111232   0.834   3.843   8.797
 1035TIP3    H211233   0.708   3.894   8.862
 1036TIP3   OH211234   1.319   3.807   8.949
 1036TIP3    H111235   1.270   3.831   8.869
 1036TIP3    H211236   1.256   3.746   8.993
 1037TIP3   OH211237   1.435   3.828   8.595
 1037TIP3    H111238   1.352   3.881   8.596
 1037TIP3    H211239   1.399   3.742   8.624
 1038TIP3   OH211240   0.284   3.905   9.764
 1038TIP3    H111241   0.228   3.827   9.782
 1038TIP3    H211242   0.351   3.890   9.833
 1039TIP3   OH211243   0.459   3.840   9.966
 1039TIP3    H111244   0.549   3.817   9.937
 1039TIP3    H211245   0.425   3.752   9.992
 1040TIP3   OH211246   1.295   3.764   9.982
 1040TIP3    H111247   1.300   3.696  10.052
 1040TIP3    H211248   1.386   3.758   9.946
 1041TIP3   OH211249   1.986   0.013   8.720
 1041TIP3    H111250   1.945   0.096   8.687
 1041TIP3    H211251   1.909  -0.044   8.734
 1042TIP3   OH211252   3.639   3.990   9.285
 1042TIP3    H111253   3.623   4.085   9.302
 1042TIP3    H211254   3.673   3.992   9.195
 1043TIP3   OH211255   3.170   4.377   9.277
 1043TIP3    H111256   3.164   4.279   9.264
 1043TIP3    H211257   3.093   4.411   9.231
 1044TIP3   OH211258   2.442   4.119   8.937
 1044TIP3    H111259   2.436   4.207   8.893
 1044TIP3    H211260   2.391   4.065   8.874
 1045TIP3   OH211261   3.238   4.208   8.797
 1045TIP3    H111262   3.280   4.165   8.876
 1045TIP3    H211263   3.295   4.286   8.792
 1046TIP3   OH211264   2.105   4.370   9.016
 1046TIP3    H111265   2.146   4.297   9.066
 1046TIP3    H211266   2.117   4.336   8.924
 1047TIP3   OH211267   3.662   4.201   9.524
 1047TIP3    H111268   3.620   4.256   9.456
 1047TIP3    H211269   3.692   4.268   9.588
 1048TIP3   OH211270   2.311   4.057   9.370
 1048TIP3    H111271   2.293   4.108   9.289
 1048TIP3    H211272   2.252   4.099   9.436
 1049TIP3   OH211273   3.387   4.130   9.000
 1049TIP3    H111274   3.394   4.046   9.048
 1049TIP3    H211275   3.464   4.178   9.037
 1050TIP3   OH211276   2.289   4.237   9.164
 1050TIP3    H111277   2.337   4.315   9.200
 1050TIP3    H211278   2.341   4.219   9.083
 1051TIP3   OH211279   3.352   4.001   9.351
 1051TIP3    H111280   3.286   4.033   9.286
 1051TIP3    H211281   3.432   3.987   9.295
 1052TIP3   OH211282   2.663   3.800   9.113
 1052TIP3    H111283   2.642   3.707   9.100
 1052TIP3    H211284   2.574   3.834   9.144
 1053TIP3   OH211285   3.536   3.786   8.497
 1053TIP3    H111286   3.440   3.807   8.507
 1053TIP3    H211287   3.577   3.873   8.487
 1054TIP3   OH211288   3.405   4.359   9.829
 1054TIP3    H111289   3.356   4.375   9.746
 1054TIP3    H211290   3.435   4.266   9.816
 1055TIP3   OH211291   2.424   3.888   9.200
 1055TIP3    H111292   2.338   3.899   9.154
 1055TIP3    H211293   2.406   3.942   9.282
 1056TIP3   OH211294   2.907   3.861   9.491
 1056TIP3    H111295   2.936   3.824   9.578
 1056TIP3    H211296   2.809   3.851   9.498
 1057TIP3   OH211297   3.184   4.273   9.650
 1057TIP3    H111298   3.115   4.239   9.714
 1057TIP3    H211299   3.129   4.311   9.580
 1058TIP3   OH211300   2.461   4.357   9.341
 1058TIP3    H111301   2.368   4.377   9.371
 1058TIP3    H211302   2.482   4.443   9.296
 1059TIP3   OH211303   2.425   4.383   8.861
 1059TIP3    H111304   2.373   4.375   8.779
 1059TIP3    H211305   2.505   4.431   8.829
 1060TIP3   OH211306   3.011  -0.007   8.693
 1060TIP3    H111307   2.940   0.056   8.675
 1060TIP3    H211308   3.026  -0.047   8.606
 1061TIP3   OH211309   2.907   4.474   9.852
 1061TIP3    H111310   2.887   4.396   9.908
 1061TIP3    H211311   2.998   4.493   9.877
 1062TIP3   OH211312   3.021   4.358   8.944
 1062TIP3    H111313   3.015   4.388   8.851
 1062TIP3    H211314   3.094   4.294   8.940
 1063TIP3   OH211315   2.200   4.396   9.419
 1063TIP3    H111316   2.178   4.458   9.490
 1063TIP3    H211317   2.162   4.314   9.455
 1064TIP3   OH211318   1.928   4.097   8.920
 1064TIP3    H111319   1.959   4.125   9.010
 1064TIP3    H211320   2.006   4.048   8.892
 1065TIP3   OH211321   2.732   4.126   8.952
 1065TIP3    H111322   2.634   4.121   8.947
 1065TIP3    H211323   2.743   4.151   9.044
 1066TIP3   OH211324   2.170   4.257   8.786
 1066TIP3    H111325   2.096   4.262   8.725
 1066TIP3    H211326   2.204   4.166   8.771
 1067TIP3   OH211327   2.520   4.275   8.578
 1067TIP3    H111328   2.614   4.263   8.592
 1067TIP3    H211329   2.515   4.353   8.521
 1068TIP3   OH211330   3.144   4.117   9.233
 1068TIP3    H111331   3.073   4.089   9.293
 1068TIP3    H211332   3.115   4.076   9.148
 1069TIP3   OH211333   2.869   4.402   9.156
 1069TIP3    H111334   2.913   4.399   9.068
 1069TIP3    H211335   2.867   4.308   9.176
 1070TIP3   OH211336   2.272   4.003   8.766
 1070TIP3    H111337   2.230   3.928   8.815
 1070TIP3    H211338   2.340   3.955   8.716
 1071TIP3   OH211339   2.693   4.221   9.309
 1071TIP3    H111340   2.618   4.283   9.299
 1071TIP3    H211341   2.749   4.272   9.372
 1072TIP3   OH211342   2.152   4.158   9.576
 1072TIP3    H111343   2.062   4.167   9.612
 1072TIP3    H211344   2.181   4.075   9.619
 1073TIP3   OH211345   3.032   4.094   9.483
 1073TIP3    H111346   3.123   4.065   9.500
 1073TIP3    H211347   2.980   4.014   9.504
 1074TIP3   OH211348   3.080   4.043   8.641
 1074TIP3    H111349   3.049   4.117   8.588
 1074TIP3    H211350   3.147   4.088   8.696
 1075TIP3   OH211351   2.821   4.229   8.677
 1075TIP3    H111352   2.816   4.321   8.706
 1075TIP3    H211353   2.804   4.184   8.763
 1076TIP3   OH211354   2.866   4.296   9.541
 1076TIP3    H111355   2.859   4.276   9.636
 1076TIP3    H211356   2.933   4.229   9.515
 1077TIP3   OH211357   2.865   3.935   8.779
 1077TIP3    H111358   2.831   3.995   8.849
 1077TIP3    H211359   2.945   3.984   8.749
 1078TIP3   OH211360   3.457   4.123   9.683
 1078TIP3    H111361   3.371   4.132   9.639
 1078TIP3    H211362   3.520   4.148   9.612
 1079TIP3   OH211363   2.164   3.872   9.129
 1079TIP3    H111364   2.148   3.839   9.037
 1079TIP3    H211365   2.162   3.785   9.176
 1080TIP3   OH211366   2.539   4.210   9.693
 1080TIP3    H111367   2.545   4.129   9.639
 1080TIP3    H211368   2.549   4.276   9.623
 1081TIP3   OH211369   2.558   4.051   9.474
 1081TIP3    H111370   2.619   4.096   9.411
 1081TIP3    H211371   2.472   4.083   9.438
 1082TIP3   OH211372   3.182   4.341  10.009
 1082TIP3    H111373   3.129   4.261   9.993
 1082TIP3    H211374   3.272   4.304  10.006
 1083TIP3   OH211375   2.393   4.328   9.896
 1083TIP3    H111376   2.313   4.271   9.885
 1083TIP3    H211377   2.454   4.286   9.830
 1084TIP3   OH211378   2.644   3.806   9.487
 1084TIP3    H111379   2.607   3.895   9.505
 1084TIP3    H211380   2.563   3.759   9.461
 1085TIP3   OH211381   2.749   4.235   9.898
 1085TIP3    H111382   2.693   4.207   9.972
 1085TIP3    H211383   2.684   4.247   9.826
 1086TIP3   OH211384   2.999   4.175   9.816
 1086TIP3    H111385   2.906   4.194   9.842
 1086TIP3    H211386   3.026   4.111   9.884
 1087TIP3   OH211387   3.147   4.020  10.003
 1087TIP3    H111388   3.171   3.927   9.981
 1087TIP3    H211389   3.136   4.013  10.100
 1088TIP3   OH211390   2.176   4.167   9.922
 1088TIP3    H111391   2.149   4.090   9.869
 1088TIP3    H211392   2.129   4.152  10.006
 1089TIP3   OH211393   2.616   3.788   9.762
 1089TIP3    H111394   2.683   3.722   9.790
 1089TIP3    H211395   2.625   3.777   9.665
 1090TIP3   OH211396   2.720   3.925   9.996
 1090TIP3    H111397   2.677   3.871   9.926
 1090TIP3    H211398   2.654   3.996  10.001
 1091TIP3   OH211399   3.554   4.237   9.222
 1091TIP3    H111400   3.627   4.303   9.215
 1091TIP3    H211401   3.477   4.292   9.244
 1092TIP3   OH211402   3.457   4.385   9.467
 1092TIP3    H111403   3.361   4.379   9.468
 1092TIP3    H211404   3.468   4.461   9.407
 1093TIP3   OH211405   1.954   4.318   9.779
 1093TIP3    H111406   2.016   4.315   9.853
 1093TIP3    H211407   1.906   4.234   9.796
 1094TIP3   OH211408   3.720   3.829   9.989
 1094TIP3    H111409   3.771   3.767   9.933
 1094TIP3    H211410   3.717   3.905   9.927
 1095TIP3   OH211411   3.521   4.040   8.661
 1095TIP3    H111412   3.546   3.988   8.740
 1095TIP3    H211413   3.430   4.010   8.647
 1096TIP3   OH211414   2.046   4.109   9.167
 1096TIP3    H111415   2.086   4.019   9.165
 1096TIP3    H211416   2.118   4.160   9.206
 1097TIP3   OH211417   1.883   4.415   9.191
 1097TIP3    H111418   1.961   4.387   9.140
 1097TIP3    H211419   1.922   4.473   9.259
 1098TIP3   OH211420   3.698   4.033   9.817
 1098TIP3    H111421   3.617   4.068   9.858
 1098TIP3    H211422   3.659   3.992   9.737
 1099TIP3   OH211423   3.755   4.024   8.314
 1099TIP3    H111424   3.714   3.943   8.282
 1099TIP3    H211425   3.850   4.006   8.296
 1100TIP3   OH211426   1.907   3.938   8.535
 1100TIP3    H111427   1.821   3.913   8.574
 1100TIP3    H211428   1.886   4.018   8.485
 1101TIP3   OH211429   1.942   3.875   9.478
 1101TIP3    H111430   1.869   3.849   9.538
 1101TIP3    H211431   1.894   3.926   9.410
 1102TIP3   OH211432   3.583   3.816   9.645
 1102TIP3    H111433   3.528   3.869   9.585
 1102TIP3    H211434   3.586   3.729   9.598
 1103TIP3   OH211435   3.012   3.990   9.051
 1103TIP3    H111436   2.933   3.949   9.088
 1103TIP3    H211437   3.068   3.912   9.026
 1104TIP3   OH211438   3.409   3.869   9.077
 1104TIP3    H111439   3.477   3.883   9.007
 1104TIP3    H211440   3.337   3.828   9.025
 1105TIP3   OH211441   3.605   3.907   8.888
 1105TIP3    H111442   3.668   3.839   8.854
 1105TIP3    H211443   3.669   3.975   8.923
 1106TIP3   OH211444   2.142   3.790   8.868
 1106TIP3    H111445   2.064   3.775   8.811
 1106TIP3    H211446   2.188   3.703   8.859
 1107TIP3   OH211447   2.118   3.772   8.453
 1107TIP3    H111448   2.120   3.844   8.388
 1107TIP3    H211449   2.045   3.804   8.511
 1108TIP3   OH211450   2.582   3.804   8.851
 1108TIP3    H111451   2.673   3.818   8.819
 1108TIP3    H211452   2.590   3.841   8.940
 1109TIP3   OH211453   3.176   3.803   8.944
 1109TIP3    H111454   3.130   3.798   8.859
 1109TIP3    H211455   3.143   3.721   8.987
 1110TIP3   OH211456   3.263   3.825   8.545
 1110TIP3    H111457   3.190   3.882   8.574
 1110TIP3    H211458   3.236   3.738   8.582
 1111TIP3   OH211459   2.198   3.979   8.287
 1111TIP3    H111460   2.276   3.926   8.263
 1111TIP3    H211461   2.235   4.065   8.309
 1112TIP3   OH211462   2.751   4.018   8.512
 1112TIP3    H111463   2.783   3.970   8.590
 1112TIP3    H211464   2.769   4.108   8.545
 1113TIP3   OH211465   2.145   3.889   9.795
 1113TIP3    H111466   2.091   3.809   9.810
 1113TIP3    H211467   2.212   3.880   9.866
 1114TIP3   OH211468   2.339   3.822   9.988
 1114TIP3    H111469   2.411   3.796   9.929
 1114TIP3    H211470   2.311   3.733  10.021
 1115TIP3   OH211471   3.182   3.760   9.962
 1115TIP3    H111472   3.171   3.703  10.040
 1115TIP3    H211473   3.276   3.741   9.941
 1116TIP3   OH211474   3.804   4.459   8.724
 1116TIP3    H111475   3.767   4.536   8.678
 1116TIP3    H211476   3.727   4.400   8.728
 1117TIP3   OH211477   4.312   4.258   8.926
 1117TIP3    H111478   4.405   4.223   8.929
 1117TIP3    H211479   4.267   4.188   8.875
 1118TIP3   OH211480   3.986   4.350   9.054
 1118TIP3    H111481   4.048   4.296   9.107
 1118TIP3    H211482   4.003   4.311   8.965
 1119TIP3   OH211483   4.208   4.021   9.369
 1119TIP3    H111484   4.176   4.070   9.291
 1119TIP3    H211485   4.141   4.045   9.436
 1120TIP3   OH211486   4.186   4.212   9.160
 1120TIP3    H111487   4.235   4.267   9.227
 1120TIP3    H211488   4.238   4.234   9.078
 1121TIP3   OH211489   4.298   3.843   9.177
 1121TIP3    H111490   4.206   3.857   9.147
 1121TIP3    H211491   4.300   3.904   9.254
 1122TIP3   OH211492   4.266   4.350   9.371
 1122TIP3    H111493   4.198   4.383   9.435
 1122TIP3    H211494   4.288   4.434   9.325
 1123TIP3   OH211495   4.237   4.470   8.788
 1123TIP3    H111496   4.265   4.387   8.836
 1123TIP3    H211497   4.315   4.484   8.734
 1124TIP3   OH211498   4.084   4.404   9.545
 1124TIP3    H111499   4.044   4.448   9.622
 1124TIP3    H211500   4.080   4.309   9.569
 1125TIP3   OH211501   4.297   4.091   8.219
 1125TIP3    H111502   4.259   4.029   8.283
 1125TIP3    H211503   4.269   4.048   8.135
 1126TIP3   OH211504   3.780   4.106   8.943
 1126TIP3    H111505   3.849   4.137   9.007
 1126TIP3    H211506   3.812   4.145   8.860
 1127TIP3   OH211507   3.945   4.198   8.488
 1127TIP3    H111508   3.883   4.195   8.413
 1127TIP3    H211509   3.892   4.157   8.559
 1128TIP3   OH211510   4.010   4.242   8.811
 1128TIP3    H111511   3.970   4.290   8.737
 1128TIP3    H211512   4.026   4.155   8.771
 1129TIP3   OH211513   4.390   4.276   8.550
 1129TIP3    H111514   4.460   4.225   8.592
 1129TIP3    H211515   4.442   4.352   8.520
 1130TIP3   OH211516   4.471   4.301   8.262
 1130TIP3    H111517   4.426   4.214   8.263
 1130TIP3    H211518   4.394   4.357   8.242
 1131TIP3   OH211519   4.168   3.985   8.774
 1131TIP3    H111520   4.119   3.929   8.837
 1131TIP3    H211521   4.250   3.937   8.761
 1132TIP3   OH211522   4.041   4.133   9.584
 1132TIP3    H111523   3.952   4.136   9.545
 1132TIP3    H211524   4.035   4.049   9.633
 1133TIP3   OH211525   4.328   3.989   8.489
 1133TIP3    H111526   4.234   3.970   8.510
 1133TIP3    H211527   4.328   4.086   8.504
 1134TIP3   OH211528   3.878   4.274   8.226
 1134TIP3    H111529   3.969   4.278   8.195
 1134TIP3    H211530   3.838   4.227   8.151
 1135TIP3   OH211531   4.027   3.813   9.135
 1135TIP3    H111532   4.017   3.800   9.038
 1135TIP3    H211533   4.005   3.723   9.167
 1136TIP3   OH211534   4.396   4.176   9.700
 1136TIP3    H111535   4.430   4.112   9.633
 1136TIP3    H211536   4.395   4.254   9.642
 1137TIP3   OH211537   4.444   4.077   9.467
 1137TIP3    H111538   4.461   4.127   9.386
 1137TIP3    H211539   4.348   4.063   9.456
 1138TIP3   OH211540   4.269   4.316   9.888
 1138TIP3    H111541   4.178   4.280   9.879
 1138TIP3    H211542   4.314   4.267   9.816
 1139TIP3   OH211543   4.020   4.200   9.874
 1139TIP3    H111544   4.021   4.119   9.820
 1139TIP3    H211545   4.008   4.165   9.964
 1140TIP3   OH211546   3.766   4.312   9.776
 1140TIP3    H111547   3.851   4.281   9.814
 1140TIP3    H211548   3.713   4.232   9.791
 1141TIP3   OH211549   3.959   4.072   9.144
 1141TIP3    H111550   3.981   3.976   9.153
 1141TIP3    H211551   4.046   4.115   9.147
 1142TIP3   OH211552   3.762   4.405   9.183
 1142TIP3    H111553   3.844   4.370   9.141
 1142TIP3    H211554   3.795   4.465   9.254
 1143TIP3   OH211555   3.791   4.080   8.673
 1143TIP3    H111556   3.695   4.096   8.661
 1143TIP3    H211557   3.795   3.983   8.670
 1144TIP3   OH211558   3.822   3.872   9.450
 1144TIP3    H111559   3.752   3.843   9.511
 1144TIP3    H211560   3.771   3.922   9.382
 1145TIP3   OH211561   4.009   3.761   8.871
 1145TIP3    H111562   3.922   3.746   8.828
 1145TIP3    H211563   4.056   3.676   8.853
 1146TIP3   OH211564   4.026   3.900   9.762
 1146TIP3    H111565   3.978   3.820   9.792
 1146TIP3    H211566   4.105   3.898   9.821
 1147TIP3   OH211567   4.212   3.859   9.955
 1147TIP3    H111568   4.286   3.807   9.918
 1147TIP3    H211569   4.160   3.788   9.999
 1148TIP3   OH211570   1.235   1.004  10.691
 1148TIP3    H111571   1.219   1.091  10.731
 1148TIP3    H211572   1.160   0.997  10.629
 1149TIP3   OH211573   1.091   0.875  11.019
 1149TIP3    H111574   1.079   0.827  11.102
 1149TIP3    H211575   1.011   0.851  10.969
 1150TIP3   OH211576   0.304   0.831  11.162
 1150TIP3    H111577   0.302   0.757  11.224
 1150TIP3    H211578   0.397   0.832  11.131
 1151TIP3   OH211579   1.422   1.209  10.926
 1151TIP3    H111580   1.412   1.129  10.980
 1151TIP3    H211581   1.461   1.271  10.991
 1152TIP3   OH211582   0.406   1.308  11.038
 1152TIP3    H111583   0.372   1.230  10.987
 1152TIP3    H211584   0.500   1.307  11.012
 1153TIP3   OH211585   0.082   0.661  10.577
 1153TIP3    H111586   0.077   0.758  10.576
 1153TIP3    H211587   0.058   0.642  10.670
 1154TIP3   OH211588   0.095   0.850  10.805
 1154TIP3    H111589   0.151   0.788  10.858
 1154TIP3    H211590   0.156   0.923  10.785
 1155TIP3   OH211591   1.165   1.749  10.912
 1155TIP3    H111592   1.221   1.686  10.862
 1155TIP3    H211593   1.120   1.687  10.971
 1156TIP3   OH211594   0.922   1.186  11.106
 1156TIP3    H111595   0.943   1.122  11.038
 1156TIP3    H211596   1.009   1.191  11.152
 1157TIP3   OH211597   1.744   0.302  11.150
 1157TIP3    H111598   1.772   0.386  11.191
 1157TIP3    H211599   1.813   0.293  11.081
 1158TIP3   OH211600   1.280   0.624  11.156
 1158TIP3    H111601   1.301   0.540  11.199
 1158TIP3    H211602   1.297   0.603  11.062
 1159TIP3   OH211603   0.536   0.389  10.830
 1159TIP3    H111604   0.553   0.473  10.781
 1159TIP3    H211605   0.516   0.329  10.756
 1160TIP3   OH211606   1.284   0.408  10.689
 1160TIP3    H111607   1.351   0.377  10.753
 1160TIP3    H211608   1.321   0.494  10.667
 1161TIP3   OH211609   0.267   0.671  10.916
 1161TIP3    H111610   0.328   0.613  10.967
 1161TIP3    H211611   0.276   0.631  10.828
 1162TIP3   OH211612   0.688   0.811  10.873
 1162TIP3    H111613   0.773   0.771  10.903
 1162TIP3    H211614   0.656   0.739  10.815
 1163TIP3   OH211615   1.799   0.468  11.415
 1163TIP3    H111616   1.759   0.549  11.376
 1163TIP3    H211617   1.853   0.503  11.488
 1164TIP3   OH211618   0.513   0.320  11.262
 1164TIP3    H111619   0.467   0.369  11.192
 1164TIP3    H211620   0.451   0.336  11.336
 1165TIP3   OH211621   1.119   1.248  10.586
 1165TIP3    H111622   1.081   1.231  10.498
 1165TIP3    H211623   1.108   1.345  10.594
 1166TIP3   OH211624   0.693   1.076  11.191
 1166TIP3    H111625   0.634   1.143  11.233
 1166TIP3    H211626   0.763   1.135  11.158
 1167TIP3   OH211627   1.504   0.379  10.867
 1167TIP3    H111628   1.495   0.292  10.912
 1167TIP3    H211629   1.584   0.408  10.913
 1168TIP3   OH211630   0.400   0.470  11.048
 1168TIP3    H111631   0.476   0.521  11.083
 1168TIP3    H211632   0.439   0.430  10.967
 1169TIP3   OH211633   0.563   1.269  11.309
 1169TIP3    H111634   0.523   1.293  11.224
 1169TIP3    H211635   0.485   1.282  11.369
 1170TIP3   OH211636   0.139   1.221  10.370
 1170TIP3    H111637   0.141   1.303  10.318
 1170TIP3    H211638   0.133   1.257  10.461
 1171TIP3   OH211639   1.499   1.386  11.123
 1171TIP3    H111640   1.402   1.402  11.130
 1171TIP3    H211641   1.524   1.471  11.079
 1172TIP3   OH211642   1.500   0.197  11.268
 1172TIP3    H111643   1.444   0.229  11.194
 1172TIP3    H211644   1.587   0.219  11.229
 1173TIP3   OH211645   0.806   0.077  10.951
 1173TIP3    H111646   0.856   0.008  11.000
 1173TIP3    H211647   0.732   0.094  11.015
 1174TIP3   OH211648   1.314   1.575  10.753
 1174TIP3    H111649   1.337   1.490  10.711
 1174TIP3    H211650   1.396   1.628  10.738
 1175TIP3   OH211651   1.424   1.357  10.605
 1175TIP3    H111652   1.407   1.294  10.532
 1175TIP3    H211653   1.422   1.297  10.682
 1176TIP3   OH211654   1.607   1.259  11.486
 1176TIP3    H111655   1.598   1.187  11.419
 1176TIP3    H211656   1.619   1.334  11.425
 1177TIP3   OH211657   1.069   0.935  10.451
 1177TIP3    H111658   1.022   1.018  10.428
 1177TIP3    H211659   1.145   0.935  10.390
 1178TIP3   OH211660   1.072   0.862  10.117
 1178TIP3    H111661   1.141   0.880  10.183
 1178TIP3    H211662   1.091   0.769  10.095
 1179TIP3   OH211663   1.810   0.890  11.250
 1179TIP3    H111664   1.749   0.964  11.269
 1179TIP3    H211665   1.861   0.925  11.175
 1180TIP3   OH211666   1.432   0.887  10.530
 1180TIP3    H111667   1.370   0.930  10.593
 1180TIP3    H211668   1.487   0.835  10.592
 1181TIP3   OH211669   1.372   0.722  11.497
 1181TIP3    H111670   1.339   0.801  11.543
 1181TIP3    H211671   1.342   0.741  11.407
 1182TIP3   OH211672   0.550   0.997  10.745
 1182TIP3    H111673   0.499   0.955  10.672
 1182TIP3    H211674   0.600   0.922  10.783
 1183TIP3   OH211675   0.696   1.299  10.991
 1183TIP3    H111676   0.707   1.286  10.896
 1183TIP3    H211677   0.785   1.277  11.026
 1184TIP3   OH211678   0.574   0.855  11.112
 1184TIP3    H111679   0.614   0.850  11.022
 1184TIP3    H211680   0.626   0.931  11.150
 1185TIP3   OH211681   1.238   1.440  11.157
 1185TIP3    H111682   1.228   1.505  11.228
 1185TIP3    H211683   1.214   1.356  11.202
 1186TIP3   OH211684   0.701   1.304  11.548
 1186TIP3    H111685   0.619   1.350  11.578
 1186TIP3    H211686   0.673   1.289  11.455
 1187TIP3   OH211687   1.289   0.870  10.305
 1187TIP3    H111688   1.351   0.877  10.382
 1187TIP3    H211689   1.338   0.923  10.237
 1188TIP3   OH211690   0.404   0.861  11.471
 1188TIP3    H111691   0.389   0.932  11.536
 1188TIP3    H211692   0.336   0.885  11.406
 1189TIP3   OH211693   1.055   1.523  10.583
 1189TIP3    H111694   1.072   1.546  10.674
 1189TIP3    H211695   1.021   1.608  10.546
 1190TIP3   OH211696   0.498   1.460  11.610
 1190TIP3    H111697   0.515   1.516  11.530
 1190TIP3    H211698   0.446   1.516  11.667
 1191TIP3   OH211699   1.679   0.084  10.375
 1191TIP3    H111700   1.584   0.057  10.378
 1191TIP3    H211701   1.684   0.117  10.282
 1192TIP3   OH211702   0.417   0.894  10.534
 1192TIP3    H111703   0.413   0.966  10.468
 1192TIP3    H211704   0.433   0.818  10.477
 1193TIP3   OH211705   1.804   1.456  10.184
 1193TIP3    H111706   1.820   1.552  10.187
 1193TIP3    H211707   1.894   1.420  10.199
 1194TIP3   OH211708   0.146   1.153  11.377
 1194TIP3    H111709   0.052   1.171  11.367
 1194TIP3    H211710   0.139   1.063  11.417
 1195TIP3   OH211711   0.130   1.398  11.068
 1195TIP3    H111712   0.213   1.351  11.048
 1195TIP3    H211713   0.163   1.461  11.136
 1196TIP3   OH211714   1.901   1.490  11.638
 1196TIP3    H111715   1.849   1.411  11.615
 1196TIP3    H211716   1.827   1.552  11.657
 1197TIP3   OH211717   0.933   1.439  11.524
 1197TIP3    H111718   0.936   1.529  11.563
 1197TIP3    H211719   0.839   1.412  11.534
 1198TIP3   OH211720   1.014   1.782  10.499
 1198TIP3    H111721   1.031   1.790  10.403
 1198TIP3    H211722   0.999   1.876  10.521
 1199TIP3   OH211723   0.376   1.680  10.675
 1199TIP3    H111724   0.385   1.639  10.764
 1199TIP3    H211725   0.291   1.647  10.644
 1200TIP3   OH211726   1.340   1.747  10.196
 1200TIP3    H111727   1.393   1.669  10.168
 1200TIP3    H211728   1.346   1.739  10.294
 1201TIP3   OH211729   1.288   1.715  10.462
 1201TIP3    H111730   1.198   1.741  10.490
 1201TIP3    H211731   1.307   1.648  10.530
 1202TIP3   OH211732   1.552   0.623  11.687
 1202TIP3    H111733   1.488   0.663  11.626
 1202TIP3    H211734   1.514   0.535  11.703
 1203TIP3   OH211735   0.344   1.298  11.447
 1203TIP3    H111736   0.333   1.272  11.541
 1203TIP3    H211737   0.262   1.255  11.411
 1204TIP3   OH211738   0.600   0.119  11.114
 1204TIP3    H111739   0.518   0.121  11.060
 1204TIP3    H211740   0.576   0.188  11.179
 1205TIP3   OH211741   1.057   0.155  11.460
 1205TIP3    H111742   1.067   0.107  11.544
 1205TIP3    H211743   0.975   0.114  11.426
 1206TIP3   OH211744   1.342   0.433  11.516
 1206TIP3    H111745   1.269   0.436  11.582
 1206TIP3    H211746   1.367   0.526  11.510
 1207TIP3   OH211747   1.408   1.010  10.116
 1207TIP3    H111748   1.388   1.020  10.020
 1207TIP3    H211749   1.505   1.007  10.112
 1208TIP3   OH211750   0.931   0.392  10.206
 1208TIP3    H111751   0.886   0.351  10.283
 1208TIP3    H211752   0.890   0.342  10.132
 1209TIP3   OH211753   0.585   0.612  11.206
 1209TIP3    H111754   0.501   0.612  11.257
 1209TIP3    H211755   0.592   0.708  11.182
 1210TIP3   OH211756   0.586   0.620  10.709
 1210TIP3    H111757   0.499   0.640  10.669
 1210TIP3    H211758   0.636   0.601  10.626
 1211TIP3   OH211759   1.129   0.711  10.582
 1211TIP3    H111760   1.090   0.788  10.534
 1211TIP3    H211761   1.201   0.689  10.521
 1212TIP3   OH211762   1.028   0.732  11.687
 1212TIP3    H111763   0.992   0.644  11.708
 1212TIP3    H211764   1.099   0.739  11.755
 1213TIP3   OH211765   1.267   0.668  10.870
 1213TIP3    H111766   1.224   0.737  10.815
 1213TIP3    H211767   1.232   0.588  10.830
 1214TIP3   OH211768   0.342   0.612  11.337
 1214TIP3    H111769   0.341   0.660  11.421
 1214TIP3    H211770   0.300   0.526  11.359
 1215TIP3   OH211771   0.640   0.419  10.023
 1215TIP3    H111772   0.603   0.379  10.106
 1215TIP3    H211773   0.568   0.482   9.999
 1216TIP3   OH211774   0.004   0.405  10.775
 1216TIP3    H111775   0.023   0.364  10.863
 1216TIP3    H211776   0.043   0.339  10.717
 1217TIP3   OH211777   0.108   0.437  10.302
 1217TIP3    H111778   0.179   0.461  10.239
 1217TIP3    H211779   0.050   0.513  10.293
 1218TIP3   OH211780   1.128   0.852  11.309
 1218TIP3    H111781   1.200   0.805  11.263
 1218TIP3    H211782   1.086   0.778  11.358
 1219TIP3   OH211783   0.835   0.409  10.798
 1219TIP3    H111784   0.742   0.415  10.824
 1219TIP3    H211785   0.865   0.333  10.852
 1220TIP3   OH211786   0.326   0.578  10.640
 1220TIP3    H111787   0.243   0.599  10.591
 1220TIP3    H211788   0.349   0.489  10.604
 1221TIP3   OH211789   0.667   0.592  10.457
 1221TIP3    H111790   0.764   0.574  10.462
 1221TIP3    H211791   0.653   0.629  10.369
 1222TIP3   OH211792   1.324   0.326  11.096
 1222TIP3    H111793   1.245   0.330  11.154
 1222TIP3    H211794   1.294   0.280  11.017
 1223TIP3   OH211795   0.541   0.722  10.192
 1223TIP3    H111796   0.505   0.635  10.171
 1223TIP3    H211797   0.609   0.735  10.123
 1224TIP3   OH211798   1.571   1.874  11.758
 1224TIP3    H111799   1.583   1.952  11.702
 1224TIP3    H211800   1.651   1.882  11.813
 1225TIP3   OH211801   0.334   1.156  11.692
 1225TIP3    H111802   0.412   1.153  11.751
 1225TIP3    H211803   0.285   1.080  11.728
 1226TIP3   OH211804   0.901   0.675  10.962
 1226TIP3    H111805   0.979   0.634  10.924
 1226TIP3    H211806   0.872   0.607  11.025
 1227TIP3   OH211807   0.425   0.309  10.572
 1227TIP3    H111808   0.365   0.249  10.621
 1227TIP3    H211809   0.493   0.246  10.545
 1228TIP3   OH211810   0.832   0.505  11.192
 1228TIP3    H111811   0.743   0.544  11.207
 1228TIP3    H211812   0.888   0.555  11.253
 1229TIP3   OH211813   0.900   1.143  10.406
 1229TIP3    H111814   0.832   1.091  10.359
 1229TIP3    H211815   0.848   1.163  10.488
 1230TIP3   OH211816   1.617   1.103  11.279
 1230TIP3    H111817   1.666   1.152  11.208
 1230TIP3    H211818   1.532   1.088  11.233
 1231TIP3   OH211819   1.199   0.402  10.207
 1231TIP3    H111820   1.100   0.404  10.209
 1231TIP3    H211821   1.221   0.495  10.232
 1232TIP3   OH211822   1.014   1.182  11.487
 1232TIP3    H111823   0.994   1.143  11.573
 1232TIP3    H211824   0.975   1.271  11.499
 1233TIP3   OH211825   1.287   0.613  10.330
 1233TIP3    H111826   1.359   0.608  10.396
 1233TIP3    H211827   1.299   0.702  10.292
 1234TIP3   OH211828   0.366   1.075  10.912
 1234TIP3    H111829   0.429   1.056  10.838
 1234TIP3    H211830   0.396   1.014  10.981
 1235TIP3   OH211831   1.110   1.286  10.269
 1235TIP3    H111832   1.061   1.369  10.289
 1235TIP3    H211833   1.042   1.222  10.295
 1236TIP3   OH211834   0.092   0.924  11.507
 1236TIP3    H111835   0.120   0.861  11.577
 1236TIP3    H211836  -0.004   0.911  11.502
 1237TIP3   OH211837   0.805   0.874  11.664
 1237TIP3    H111838   0.756   0.812  11.606
 1237TIP3    H211839   0.893   0.831  11.667
 1238TIP3   OH211840   1.288   1.419  11.521
 1238TIP3    H111841   1.205   1.430  11.472
 1238TIP3    H211842   1.260   1.445  11.611
 1239TIP3   OH211843   1.745   0.613  10.339
 1239TIP3    H111844   1.712   0.586  10.251
 1239TIP3    H211845   1.771   0.706  10.321
 1240TIP3   OH211846   1.850   1.195  11.579
 1240TIP3    H111847   1.759   1.212  11.546
 1240TIP3    H211848   1.900   1.195  11.496
 1241TIP3   OH211849   1.663   1.449  10.436
 1241TIP3    H111850   1.585   1.415  10.483
 1241TIP3    H211851   1.677   1.383  10.368
 1242TIP3   OH211852   1.381   0.979  11.075
 1242TIP3    H111853   1.290   0.953  11.053
 1242TIP3    H211854   1.432   0.914  11.023
 1243TIP3   OH211855   0.603   1.395  10.707
 1243TIP3    H111856   0.628   1.486  10.677
 1243TIP3    H211857   0.512   1.391  10.676
 1244TIP3   OH211858   0.215   0.927  10.131
 1244TIP3    H111859   0.259   0.990  10.192
 1244TIP3    H211860   0.126   0.923  10.170
 1245TIP3   OH211861   0.742   1.166  10.627
 1245TIP3    H111862   0.694   1.249  10.653
 1245TIP3    H211863   0.700   1.100  10.685
 1246TIP3   OH211864   0.838   1.610  11.310
 1246TIP3    H111865   0.894   1.679  11.270
 1246TIP3    H211866   0.897   1.573  11.377
 1247TIP3   OH211867   0.629   1.645  10.585
 1247TIP3    H111868   0.534   1.660  10.605
 1247TIP3    H211869   0.666   1.729  10.618
 1248TIP3   OH211870   1.156   1.200  11.252
 1248TIP3    H111871   1.115   1.172  11.338
 1248TIP3    H211872   1.199   1.117  11.223
 1249TIP3   OH211873   1.425   1.313  10.172
 1249TIP3    H111874   1.427   1.273  10.261
 1249TIP3    H211875   1.335   1.287  10.147
 1250TIP3   OH211876   1.454   1.647  11.530
 1250TIP3    H111877   1.382   1.581  11.524
 1250TIP3    H211878   1.446   1.694  11.445
 1251TIP3   OH211879   1.835   1.734  10.215
 1251TIP3    H111880   1.887   1.807  10.179
 1251TIP3    H211881   1.765   1.783  10.262
 1252TIP3   OH211882   0.285   0.348  11.422
 1252TIP3    H111883   0.215   0.382  11.480
 1252TIP3    H211884   0.253   0.256  11.412
 1253TIP3   OH211885   1.497   1.154  10.415
 1253TIP3    H111886   1.479   1.062  10.444
 1253TIP3    H211887   1.595   1.152  10.410
 1254TIP3   OH211888   0.243   1.548  11.260
 1254TIP3    H111889   0.296   1.476  11.297
 1254TIP3    H211890   0.214   1.592  11.341
 1255TIP3   OH211891   0.807   1.444  10.042
 1255TIP3    H111892   0.805   1.395   9.959
 1255TIP3    H211893   0.747   1.392  10.099
 1256TIP3   OH211894   0.675   1.338  10.268
 1256TIP3    H111895   0.753   1.304  10.314
 1256TIP3    H211896   0.681   1.433  10.294
 1257TIP3   OH211897   0.351   1.081  10.313
 1257TIP3    H111898   0.269   1.122  10.352
 1257TIP3    H211899   0.394   1.160  10.275
 1258TIP3   OH211900   1.154   0.364  11.329
 1258TIP3    H111901   1.242   0.364  11.373
 1258TIP3    H211902   1.113   0.287  11.377
 1259TIP3   OH211903   1.261   0.273  10.440
 1259TIP3    H111904   1.249   0.320  10.354
 1259TIP3    H211905   1.278   0.344  10.504
 1260TIP3   OH211906   0.956   1.522  10.292
 1260TIP3    H111907   0.868   1.552  10.324
 1260TIP3    H211908   1.004   1.607  10.288
 1261TIP3   OH211909   0.905   0.522  10.551
 1261TIP3    H111910   0.980   0.585  10.558
 1261TIP3    H211911   0.895   0.488  10.643
 1262TIP3   OH211912   1.035   0.637  11.428
 1262TIP3    H111913   1.035   0.670  11.521
 1262TIP3    H211914   1.065   0.545  11.438
 1263TIP3   OH211915   1.011   0.235  10.611
 1263TIP3    H111916   0.994   0.255  10.705
 1263TIP3    H211917   1.092   0.287  10.595
 1264TIP3   OH211918   0.700   1.593  10.331
 1264TIP3    H111919   0.703   1.675  10.276
 1264TIP3    H211920   0.662   1.633  10.413
 1265TIP3   OH211921   0.551   0.368  10.270
 1265TIP3    H111922   0.532   0.419  10.351
 1265TIP3    H211923   0.638   0.332  10.296
 1266TIP3   OH211924   1.594   0.353  11.573
 1266TIP3    H111925   1.507   0.348  11.528
 1266TIP3    H211926   1.646   0.402  11.507
 1267TIP3   OH211927   1.494   0.795  10.914
 1267TIP3    H111928   1.413   0.740  10.919
 1267TIP3    H211929   1.551   0.747  10.978
 1268TIP3   OH211930   0.396   1.342  10.170
 1268TIP3    H111931   0.464   1.365  10.235
 1268TIP3    H211932   0.450   1.288  10.106
 1269TIP3   OH211933   0.222   0.633  10.109
 1269TIP3    H111934   0.257   0.723  10.121
 1269TIP3    H211935   0.168   0.637  10.029
 1270TIP3   OH211936   1.547   1.659  11.096
 1270TIP3    H111937   1.529   1.719  11.023
 1270TIP3    H211938   1.645   1.660  11.096
 1271TIP3   OH211939   0.362   0.098  10.998
 1271TIP3    H111940   0.357   0.135  10.907
 1271TIP3    H211941   0.320   0.011  10.986
 1272TIP3   OH211942   0.169   1.423  10.551
 1272TIP3    H111943   0.107   1.451  10.620
 1272TIP3    H211944   0.171   1.500  10.491
 1273TIP3   OH211945   0.173   1.739  11.753
 1273TIP3    H111946   0.220   1.759  11.836
 1273TIP3    H211947   0.161   1.642  11.761
 1274TIP3   OH211948   0.579   1.681  11.847
 1274TIP3    H111949   0.651   1.687  11.912
 1274TIP3    H211950   0.607   1.604  11.794
 1275TIP3   OH211951   0.993   1.651  10.000
 1275TIP3    H111952   0.946   1.575  10.042
 1275TIP3    H211953   1.072   1.603   9.967
 1276TIP3   OH211954   1.223   1.512  11.760
 1276TIP3    H111955   1.177   1.428  11.784
 1276TIP3    H211956   1.284   1.520  11.836
 1277TIP3   OH211957   1.450   1.548  10.037
 1277TIP3    H111958   1.458   1.465  10.091
 1277TIP3    H211959   1.531   1.546   9.984
 1278TIP3   OH211960   0.066   1.124  11.845
 1278TIP3    H111961   0.089   1.053  11.783
 1278TIP3    H211962   0.036   1.193  11.782
 1279TIP3   OH211963   0.570   1.163  10.019
 1279TIP3    H111964   0.599   1.123  10.103
 1279TIP3    H211965   0.655   1.162   9.969
 1280TIP3   OH211966   0.807   1.140  11.726
 1280TIP3    H111967   0.783   1.188  11.643
 1280TIP3    H211968   0.810   1.044  11.699
 1281TIP3   OH211969   1.109   1.317   9.990
 1281TIP3    H111970   1.103   1.308  10.087
 1281TIP3    H211971   1.111   1.221   9.965
 1282TIP3   OH211972   1.353   1.138  11.517
 1282TIP3    H111973   1.435   1.191  11.510
 1282TIP3    H211974   1.290   1.212  11.524
 1283TIP3   OH211975   0.230   0.861  11.756
 1283TIP3    H111976   0.266   0.773  11.735
 1283TIP3    H211977   0.213   0.853  11.852
 1284TIP3   OH211978   0.689   0.973  10.269
 1284TIP3    H111979   0.604   0.925  10.268
 1284TIP3    H211980   0.741   0.914  10.209
 1285TIP3   OH211981   0.646   0.708  11.505
 1285TIP3    H111982   0.559   0.754  11.502
 1285TIP3    H211983   0.693   0.756  11.433
 1286TIP3   OH211984   0.789   0.822  10.069
 1286TIP3    H111985   0.757   0.843   9.980
 1286TIP3    H211986   0.885   0.841  10.061
 1287TIP3   OH211987   1.127   0.989  11.900
 1287TIP3    H111988   1.203   0.963  11.846
 1287TIP3    H211989   1.100   0.904  11.937
 1288TIP3   OH211990   1.674   0.991  10.032
 1288TIP3    H111991   1.682   0.972   9.936
 1288TIP3    H211992   1.688   1.089  10.035
 1289TIP3   OH211993   0.626   0.448  11.603
 1289TIP3    H111994   0.664   0.396  11.530
 1289TIP3    H211995   0.627   0.536  11.561
 1290TIP3   OH211996   0.756   0.336  11.385
 1290TIP3    H111997   0.819   0.366  11.317
 1290TIP3    H211998   0.675   0.340  11.331
 1291TIP3   OH211999   0.808   0.879  11.350
 1291TIP3    H112000   0.903   0.886  11.329
 1291TIP3    H212001   0.773   0.963  11.316
 1292TIP3   OH212002   1.202   0.692  11.889
 1292TIP3    H112003   1.186   0.599  11.911
 1292TIP3    H212004   1.295   0.703  11.913
 1293TIP3   OH212005   1.446   0.946  11.710
 1293TIP3    H112006   1.410   1.004  11.640
 1293TIP3    H212007   1.536   0.927  11.676
 1294TIP3   OH212008   0.488   0.591  11.813
 1294TIP3    H112009   0.417   0.528  11.835
 1294TIP3    H212010   0.532   0.547  11.739
 1295TIP3   OH212011   0.799   0.070  11.403
 1295TIP3    H112012   0.768   0.163  11.401
 1295TIP3    H212013   0.723   0.024  11.366
 1296TIP3   OH212014   0.879   0.476  11.711
 1296TIP3    H112015   0.872   0.390  11.758
 1296TIP3    H212016   0.790   0.478  11.670
 1297TIP3   OH212017   1.153   0.423  11.702
 1297TIP3    H112018   1.057   0.427  11.680
 1297TIP3    H212019   1.159   0.338  11.747
 1298TIP3   OH212020   1.390   0.375  11.899
 1298TIP3    H112021   1.349   0.294  11.863
 1298TIP3    H212022   1.332   0.393  11.977
 1299TIP3   OH212023   0.293   0.380  11.828
 1299TIP3    H112024   0.343   0.316  11.776
 1299TIP3    H212025   0.265   0.329  11.906
 1300TIP3   OH212026   0.743   4.492  11.685
 1300TIP3    H112027   0.782   4.407  11.710
 1300TIP3    H212028   0.779   4.506  11.596
 1301TIP3   OH212029   0.829   0.228  11.812
 1301TIP3    H112030   0.797   0.137  11.793
 1301TIP3    H212031   0.769   0.260  11.882
 1302TIP3   OH212032   0.748   1.834  10.229
 1302TIP3    H112033   0.841   1.858  10.237
 1302TIP3    H212034   0.727   1.881  10.147
 1303TIP3   OH212035   0.089   1.371  10.119
 1303TIP3    H112036   0.185   1.382  10.132
 1303TIP3    H212037   0.087   1.295  10.056
 1304TIP3   OH212038   0.024   1.961  10.773
 1304TIP3    H112039  -0.008   1.920  10.690
 1304TIP3    H212040   0.026   1.885  10.835
 1305TIP3   OH212041   0.093   1.666  10.854
 1305TIP3    H112042   0.046   1.589  10.891
 1305TIP3    H212043   0.152   1.686  10.929
 1306TIP3   OH212044   1.816   1.667  11.100
 1306TIP3    H112045   1.833   1.721  11.180
 1306TIP3    H212046   1.879   1.706  11.036
 1307TIP3   OH212047   1.788   1.715  11.380
 1307TIP3    H112048   1.751   1.630  11.348
 1307TIP3    H212049   1.813   1.685  11.468
 1308TIP3   OH212050   1.643   1.293  11.891
 1308TIP3    H112051   1.550   1.300  11.914
 1308TIP3    H212052   1.677   1.376  11.929
 1309TIP3   OH212053   1.758   1.099  10.414
 1309TIP3    H112054   1.846   1.142  10.421
 1309TIP3    H212055   1.759   1.038  10.490
 1310TIP3   OH212056   1.805   0.893  10.609
 1310TIP3    H112057   1.736   0.829  10.637
 1310TIP3    H212058   1.851   0.906  10.695
 1311TIP3   OH212059   1.757   1.200  11.072
 1311TIP3    H112060   1.833   1.138  11.064
 1311TIP3    H212061   1.793   1.281  11.034
 1312TIP3   OH212062   1.658   1.474  11.318
 1312TIP3    H112063   1.577   1.514  11.353
 1312TIP3    H212064   1.623   1.431  11.237
 1313TIP3   OH212065   1.823   0.873  10.260
 1313TIP3    H112066   1.763   0.903  10.189
 1313TIP3    H212067   1.816   0.950  10.320
 1314TIP3   OH212068   1.675   0.597  10.064
 1314TIP3    H112069   1.692   0.680  10.017
 1314TIP3    H212070   1.642   0.538   9.994
 1315TIP3   OH212071   1.611   0.730  10.685
 1315TIP3    H112072   1.572   0.641  10.687
 1315TIP3    H212073   1.575   0.767  10.769
 1316TIP3   OH212074   0.111   0.995  11.068
 1316TIP3    H112075   0.095   0.954  10.981
 1316TIP3    H212076   0.186   0.944  11.104
 1317TIP3   OH212077   1.697   0.931  11.590
 1317TIP3    H112078   1.748   0.858  11.635
 1317TIP3    H212079   1.769   0.991  11.565
 1318TIP3   OH212080   1.803   0.719  11.701
 1318TIP3    H112081   1.711   0.684  11.708
 1318TIP3    H212082   1.853   0.634  11.703
 1319TIP3   OH212083   1.632   0.330   9.968
 1319TIP3    H112084   1.669   0.304  10.054
 1319TIP3    H212085   1.538   0.344   9.988
 1320TIP3   OH212086   1.495   0.560  10.504
 1320TIP3    H112087   1.525   0.471  10.530
 1320TIP3    H212088   1.580   0.597  10.475
 1321TIP3   OH212089   1.633   0.624  11.079
 1321TIP3    H112090   1.732   0.630  11.086
 1321TIP3    H212091   1.613   0.610  11.173
 1322TIP3   OH212092   1.658   0.683  11.358
 1322TIP3    H112093   1.597   0.718  11.424
 1322TIP3    H212094   1.695   0.766  11.320
 1323TIP3   OH212095   0.103   0.553  11.664
 1323TIP3    H112096   0.150   0.496  11.728
 1323TIP3    H212097   0.011   0.529  11.680
 1324TIP3   OH212098   1.870   0.083  11.887
 1324TIP3    H112099   1.863   0.011  11.823
 1324TIP3    H212100   1.861   0.160  11.828
 1325TIP3   OH212101   1.604   0.313  10.567
 1325TIP3    H112102   1.638   0.258  10.641
 1325TIP3    H212103   1.595   0.246  10.497
 1326TIP3   OH212104   0.151   0.275  10.965
 1326TIP3    H112105   0.210   0.210  11.008
 1326TIP3    H212106   0.178   0.359  11.005
 1327TIP3   OH212107   0.022   0.624  11.074
 1327TIP3    H112108   0.110   0.652  11.045
 1327TIP3    H212109  -0.014   0.708  11.108
 1328TIP3   OH212110   1.879   0.222  11.655
 1328TIP3    H112111   1.797   0.252  11.699
 1328TIP3    H212112   1.836   0.174  11.580
 1329TIP3   OH212113   1.797   0.239  10.173
 1329TIP3    H112114   1.859   0.184  10.122
 1329TIP3    H212115   1.857   0.310  10.206
 1330TIP3   OH212116   0.031   0.286  10.521
 1330TIP3    H112117  -0.037   0.356  10.529
 1330TIP3    H212118   0.071   0.318  10.437
 1331TIP3   OH212119   1.492   1.762  10.705
 1331TIP3    H112120   1.572   1.756  10.651
 1331TIP3    H212121   1.521   1.824  10.775
 1332TIP3   OH212122   0.056   0.087  11.356
 1332TIP3    H112123  -0.016   0.024  11.341
 1332TIP3    H212124   0.022   0.168  11.318
 1333TIP3   OH212125   0.169   1.457  11.807
 1333TIP3    H112126   0.191   1.385  11.746
 1333TIP3    H212127   0.168   1.414  11.895
 1334TIP3   OH212128   0.584   1.590  11.394
 1334TIP3    H112129   0.561   1.674  11.350
 1334TIP3    H212130   0.677   1.581  11.364
 1335TIP3   OH212131   0.961   1.708  11.612
 1335TIP3    H112132   0.972   1.681  11.705
 1335TIP3    H212133   1.046   1.756  11.596
 1336TIP3   OH212134   1.190   1.852  11.583
 1336TIP3    H112135   1.275   1.818  11.551
 1336TIP3    H212136   1.214   1.887  11.670
 1337TIP3   OH212137   1.720   0.076  11.508
 1337TIP3    H112138   1.642   0.125  11.478
 1337TIP3    H212139   1.707  -0.005  11.454
 1338TIP3   OH212140   0.309   1.888  11.367
 1338TIP3    H112141   0.212   1.887  11.354
 1338TIP3    H212142   0.314   1.937  11.452
 1339TIP3   OH212143   0.547   1.817  11.264
 1339TIP3    H112144   0.458   1.832  11.305
 1339TIP3    H212145   0.546   1.884  11.192
 1340TIP3   OH212146   0.993   1.802  11.178
 1340TIP3    H112147   0.922   1.860  11.145
 1340TIP3    H212148   1.033   1.862  11.244
 1341TIP3   OH212149   1.193   1.673  11.322
 1341TIP3    H112150   1.130   1.698  11.251
 1341TIP3    H212151   1.262   1.740  11.307
 1342TIP3   OH212152   1.462   1.809  11.298
 1342TIP3    H112153   1.496   1.893  11.263
 1342TIP3    H212154   1.491   1.747  11.226
 1343TIP3   OH212155   0.290   1.733  11.071
 1343TIP3    H112156   0.289   1.678  11.152
 1343TIP3    H212157   0.366   1.694  11.025
 1344TIP3   OH212158   0.444   1.560  10.921
 1344TIP3    H112159   0.418   1.473  10.957
 1344TIP3    H212160   0.532   1.573  10.963
 1345TIP3   OH212161   0.681   1.592  11.047
 1345TIP3    H112162   0.730   1.510  11.029
 1345TIP3    H212163   0.702   1.606  11.140
 1346TIP3   OH212164   1.033   0.204  10.891
 1346TIP3    H112165   0.959   0.146  10.918
 1346TIP3    H212166   1.095   0.191  10.964
 1347TIP3   OH212167   1.529   0.126  10.953
 1347TIP3    H112168   1.592   0.114  10.880
 1347TIP3    H212169   1.449   0.080  10.918
 1348TIP3   OH212170   1.740   0.149  10.763
 1348TIP3    H112171   1.815   0.095  10.734
 1348TIP3    H212172   1.786   0.226  10.802
 1349TIP3   OH212173   0.327   0.104  10.730
 1349TIP3    H112174   0.265   0.074  10.660
 1349TIP3    H212175   0.312   0.027  10.787
 1350TIP3   OH212176   0.162   0.068  10.301
 1350TIP3    H112177   0.227   0.114  10.245
 1350TIP3    H212178   0.114   0.143  10.340
 1351TIP3   OH212179   0.758   0.046  10.676
 1351TIP3    H112180   0.817   0.116  10.645
 1351TIP3    H212181   0.765   0.058  10.773
 1352TIP3   OH212182   1.307   0.073  10.808
 1352TIP3    H112183   1.266   0.130  10.742
 1352TIP3    H212184   1.237   0.005  10.818
 1353TIP3   OH212185   1.426   0.058  10.429
 1353TIP3    H112186   1.361   0.132  10.436
 1353TIP3    H212187   1.421   0.018  10.517
 1354TIP3   OH212188   0.176   1.650  10.392
 1354TIP3    H112189   0.083   1.647  10.361
 1354TIP3    H212190   0.199   1.744  10.374
 1355TIP3   OH212191   0.314   0.239  10.144
 1355TIP3    H112192   0.366   0.188  10.078
 1355TIP3    H212193   0.385   0.276  10.198
 1356TIP3   OH212194   0.805   0.291  10.419
 1356TIP3    H112195   0.874   0.237  10.461
 1356TIP3    H212196   0.825   0.377  10.463
 1357TIP3   OH212197   1.069   1.789  10.236
 1357TIP3    H112198   1.167   1.787  10.228
 1357TIP3    H212199   1.046   1.770  10.143
 1358TIP3   OH212200   1.718   1.695  10.530
 1358TIP3    H112201   1.703   1.614  10.477
 1358TIP3    H212202   1.703   1.767  10.465
 1359TIP3   OH212203   0.273   0.067  11.616
 1359TIP3    H112204   0.208   0.014  11.667
 1359TIP3    H212205   0.335   0.092  11.687
 1360TIP3   OH212206   0.451   0.097  11.843
 1360TIP3    H112207   0.545   0.120  11.841
 1360TIP3    H212208   0.460  -0.001  11.836
 1361TIP3   OH212209   0.283   1.733  10.085
 1361TIP3    H112210   0.242   1.768  10.166
 1361TIP3    H212211   0.358   1.682  10.119
 1362TIP3   OH212212   1.321   0.088  11.830
 1362TIP3    H112213   1.290   0.012  11.884
 1362TIP3    H212214   1.410   0.056  11.805
 1363TIP3   OH212215   1.674   1.626  11.681
 1363TIP3    H112216   1.596   1.627  11.620
 1363TIP3    H212217   1.652   1.707  11.731
 1364TIP3   OH212218   3.108   0.986  10.695
 1364TIP3    H112219   3.101   1.075  10.734
 1364TIP3    H212220   3.029   0.982  10.639
 1365TIP3   OH212221   2.992   0.873  11.018
 1365TIP3    H112222   2.979   0.843  11.110
 1365TIP3    H212223   2.904   0.857  10.980
 1366TIP3   OH212224   2.166   0.881  11.177
 1366TIP3    H112225   2.187   0.790  11.202
 1366TIP3    H212226   2.245   0.928  11.207
 1367TIP3   OH212227   3.295   1.199  10.918
 1367TIP3    H112228   3.289   1.126  10.982
 1367TIP3    H212229   3.326   1.273  10.974
 1368TIP3   OH212230   2.298   1.368  10.943
 1368TIP3    H112231   2.262   1.277  10.943
 1368TIP3    H212232   2.389   1.344  10.969
 1369TIP3   OH212233   1.957   0.623  10.578
 1369TIP3    H112234   1.946   0.718  10.563
 1369TIP3    H212235   1.866   0.595  10.559
 1370TIP3   OH212236   1.954   0.882  10.833
 1370TIP3    H112237   1.993   0.792  10.847
 1370TIP3    H212238   2.027   0.928  10.791
 1371TIP3   OH212239   3.032   1.729  10.858
 1371TIP3    H112240   3.093   1.670  10.809
 1371TIP3    H212241   3.016   1.672  10.934
 1372TIP3   OH212242   2.758   1.147  11.144
 1372TIP3    H112243   2.794   1.122  11.059
 1372TIP3    H212244   2.841   1.171  11.191
 1373TIP3   OH212245   3.624   0.295  11.138
 1373TIP3    H112246   3.657   0.371  11.189
 1373TIP3    H212247   3.691   0.288  11.067
 1374TIP3   OH212248   3.158   0.597  11.148
 1374TIP3    H112249   3.209   0.521  11.180
 1374TIP3    H212250   3.164   0.584  11.052
 1375TIP3   OH212251   2.434   0.340  10.807
 1375TIP3    H112252   2.440   0.436  10.789
 1375TIP3    H212253   2.368   0.314  10.741
 1376TIP3   OH212254   3.214   0.396  10.666
 1376TIP3    H112255   3.258   0.372  10.749
 1376TIP3    H212256   3.276   0.465  10.636
 1377TIP3   OH212257   2.068   0.646  10.909
 1377TIP3    H112258   2.138   0.626  10.975
 1377TIP3    H212259   2.105   0.600  10.832
 1378TIP3   OH212260   2.551   0.817  10.852
 1378TIP3    H112261   2.640   0.781  10.868
 1378TIP3    H212262   2.509   0.737  10.813
 1379TIP3   OH212263   3.659   0.453  11.408
 1379TIP3    H112264   3.626   0.545  11.392
 1379TIP3    H212265   3.730   0.469  11.474
 1380TIP3   OH212266   2.352   0.304  11.253
 1380TIP3    H112267   2.295   0.343  11.184
 1380TIP3    H212268   2.303   0.334  11.333
 1381TIP3   OH212269   3.002   1.232  10.588
 1381TIP3    H112270   2.954   1.216  10.506
 1381TIP3    H212271   2.996   1.330  10.596
 1382TIP3   OH212272   2.534   1.041  11.256
 1382TIP3    H112273   2.473   1.110  11.292
 1382TIP3    H212274   2.604   1.096  11.215
 1383TIP3   OH212275   3.393   0.435  10.905
 1383TIP3    H112276   3.411   0.345  10.940
 1383TIP3    H212277   3.443   0.490  10.970
 1384TIP3   OH212278   2.272   0.520  11.044
 1384TIP3    H112279   2.341   0.551  11.108
 1384TIP3    H212280   2.324   0.508  10.963
 1385TIP3   OH212281   2.424   1.279  11.326
 1385TIP3    H112282   2.433   1.373  11.305
 1385TIP3    H212283   2.336   1.281  11.372
 1386TIP3   OH212284   2.008   1.201  10.422
 1386TIP3    H112285   2.007   1.257  10.340
 1386TIP3    H212286   2.016   1.273  10.489
 1387TIP3   OH212287   3.370   1.394  11.091
 1387TIP3    H112288   3.276   1.405  11.121
 1387TIP3    H212289   3.381   1.483  11.051
 1388TIP3   OH212290   3.407   0.173  11.253
 1388TIP3    H112291   3.334   0.191  11.189
 1388TIP3    H212292   3.482   0.212  11.202
 1389TIP3   OH212293   2.673   0.081  10.956
 1389TIP3    H112294   2.716   0.012  11.011
 1389TIP3    H212295   2.590   0.098  11.007
 1390TIP3   OH212296   3.208   1.557  10.751
 1390TIP3    H112297   3.232   1.483  10.691
 1390TIP3    H212298   3.283   1.620  10.736
 1391TIP3   OH212299   3.301   1.348  10.606
 1391TIP3    H112300   3.296   1.284  10.533
 1391TIP3    H212301   3.298   1.290  10.684
 1392TIP3   OH212302   3.499   1.267  11.504
 1392TIP3    H112303   3.503   1.193  11.440
 1392TIP3    H212304   3.512   1.339  11.438
 1393TIP3   OH212305   2.918   0.926  10.440
 1393TIP3    H112306   2.882   1.015  10.424
 1393TIP3    H212307   3.002   0.927  10.389
 1394TIP3   OH212308   2.940   0.841  10.132
 1394TIP3    H112309   3.010   0.869  10.194
 1394TIP3    H212310   2.995   0.785  10.074
 1395TIP3   OH212311   3.659   0.885  11.236
 1395TIP3    H112312   3.640   0.960  11.295
 1395TIP3    H212313   3.711   0.932  11.168
 1396TIP3   OH212314   3.292   0.890  10.532
 1396TIP3    H112315   3.224   0.918  10.599
 1396TIP3    H212316   3.360   0.848  10.591
 1397TIP3   OH212317   3.263   0.717  11.460
 1397TIP3    H112318   3.273   0.810  11.490
 1397TIP3    H212319   3.179   0.724  11.412
 1398TIP3   OH212320   2.396   0.996  10.731
 1398TIP3    H112321   2.342   0.944  10.666
 1398TIP3    H212322   2.452   0.927  10.774
 1399TIP3   OH212323   2.568   1.296  10.993
 1399TIP3    H112324   2.585   1.280  10.899
 1399TIP3    H212325   2.630   1.235  11.037
 1400TIP3   OH212326   2.453   0.840  11.104
 1400TIP3    H112327   2.492   0.853  11.014
 1400TIP3    H212328   2.494   0.913  11.156
 1401TIP3   OH212329   3.122   1.437  11.176
 1401TIP3    H112330   3.111   1.506  11.245
 1401TIP3    H212331   3.081   1.361  11.221
 1402TIP3   OH212332   2.578   1.304  11.551
 1402TIP3    H112333   2.500   1.352  11.590
 1402TIP3    H212334   2.541   1.288  11.461
 1403TIP3   OH212335   3.160   0.872  10.303
 1403TIP3    H112336   3.218   0.884  10.383
 1403TIP3    H212337   3.213   0.918  10.234
 1404TIP3   OH212338   2.269   0.904  11.504
 1404TIP3    H112339   2.254   0.938  11.594
 1404TIP3    H212340   2.177   0.876  11.483
 1405TIP3   OH212341   2.938   1.518  10.610
 1405TIP3    H112342   2.949   1.534  10.704
 1405TIP3    H212343   2.908   1.606  10.579
 1406TIP3   OH212344   2.390   1.471  11.654
 1406TIP3    H112345   2.385   1.525  11.572
 1406TIP3    H212346   2.295   1.463  11.681
 1407TIP3   OH212347   3.562   0.055  10.376
 1407TIP3    H112348   3.464   0.044  10.381
 1407TIP3    H212349   3.573   0.112  10.297
 1408TIP3   OH212350   2.248   0.887  10.527
 1408TIP3    H112351   2.264   0.967  10.473
 1408TIP3    H212352   2.225   0.822  10.458
 1409TIP3   OH212353   3.684   1.454  10.186
 1409TIP3    H112354   3.700   1.551  10.179
 1409TIP3    H212355   3.776   1.419  10.191
 1410TIP3   OH212356   2.003   1.157  11.353
 1410TIP3    H112357   1.988   1.147  11.258
 1410TIP3    H212358   2.029   1.065  11.375
 1411TIP3   OH212359   1.966   1.432  11.044
 1411TIP3    H112360   2.048   1.400  11.084
 1411TIP3    H212361   1.936   1.499  11.108
 1412TIP3   OH212362   3.765   1.500  11.597
 1412TIP3    H112363   3.766   1.402  11.604
 1412TIP3    H212364   3.678   1.520  11.640
 1413TIP3   OH212365   2.837   1.416  11.515
 1413TIP3    H112366   2.858   1.492  11.573
 1413TIP3    H212367   2.750   1.387  11.550
 1414TIP3   OH212368   2.892   1.779  10.519
 1414TIP3    H112369   2.905   1.787  10.422
 1414TIP3    H212370   2.884   1.874  10.544
 1415TIP3   OH212371   2.250   1.655  10.690
 1415TIP3    H112372   2.283   1.629  10.778
 1415TIP3    H212373   2.154   1.639  10.700
 1416TIP3   OH212374   3.209   1.751  10.183
 1416TIP3    H112375   3.255   1.673  10.145
 1416TIP3    H212376   3.221   1.738  10.279
 1417TIP3   OH212377   3.160   1.727  10.461
 1417TIP3    H112378   3.073   1.755  10.493
 1417TIP3    H212379   3.173   1.645  10.512
 1418TIP3   OH212380   3.398   0.604  11.697
 1418TIP3    H112381   3.355   0.640  11.617
 1418TIP3    H212382   3.370   0.510  11.696
 1419TIP3   OH212383   2.201   1.290  11.465
 1419TIP3    H112384   2.197   1.248  11.554
 1419TIP3    H212385   2.118   1.254  11.427
 1420TIP3   OH212386   2.465   0.114  11.109
 1420TIP3    H112387   2.387   0.118  11.049
 1420TIP3    H212388   2.439   0.185  11.173
 1421TIP3   OH212389   2.936   0.140  11.468
 1421TIP3    H112390   2.955   0.082  11.543
 1421TIP3    H212391   2.854   0.101  11.433
 1422TIP3   OH212392   3.256   0.437  11.489
 1422TIP3    H112393   3.182   0.421  11.552
 1422TIP3    H212394   3.261   0.534  11.485
 1423TIP3   OH212395   3.300   0.998  10.125
 1423TIP3    H112396   3.285   0.999  10.027
 1423TIP3    H212397   3.390   1.034  10.129
 1424TIP3   OH212398   2.866   0.336  10.167
 1424TIP3    H112399   2.828   0.308  10.253
 1424TIP3    H212400   2.819   0.273  10.109
 1425TIP3   OH212401   2.497   0.593  11.202
 1425TIP3    H112402   2.461   0.610  11.292
 1425TIP3    H212403   2.486   0.682  11.164
 1426TIP3   OH212404   2.447   0.594  10.740
 1426TIP3    H112405   2.353   0.592  10.711
 1426TIP3    H212406   2.494   0.586  10.653
 1427TIP3   OH212407   3.012   0.718  10.579
 1427TIP3    H112408   2.966   0.785  10.525
 1427TIP3    H212409   3.088   0.697  10.523
 1428TIP3   OH212410   2.932   0.737  11.678
 1428TIP3    H112411   2.885   0.652  11.695
 1428TIP3    H212412   2.982   0.742  11.762
 1429TIP3   OH212413   3.136   0.687  10.874
 1429TIP3    H112414   3.083   0.768  10.881
 1429TIP3    H212415   3.115   0.660  10.783
 1430TIP3   OH212416   2.206   0.618  11.300
 1430TIP3    H112417   2.260   0.663  11.368
 1430TIP3    H212418   2.188   0.531  11.340
 1431TIP3   OH212419   2.514   0.407  10.041
 1431TIP3    H112420   2.453   0.365  10.106
 1431TIP3    H212421   2.456   0.475  10.001
 1432TIP3   OH212422   1.903   0.355  10.857
 1432TIP3    H112423   1.977   0.353  10.921
 1432TIP3    H212424   1.946   0.371  10.773
 1433TIP3   OH212425   1.963   0.420  10.280
 1433TIP3    H112426   2.036   0.455  10.224
 1433TIP3    H212427   1.916   0.502  10.302
 1434TIP3   OH212428   3.015   0.799  11.277
 1434TIP3    H112429   3.085   0.746  11.233
 1434TIP3    H212430   2.967   0.729  11.329
 1435TIP3   OH212431   2.707   0.399  10.786
 1435TIP3    H112432   2.614   0.370  10.800
 1435TIP3    H212433   2.756   0.331  10.836
 1436TIP3   OH212434   2.186   0.536  10.687
 1436TIP3    H112435   2.111   0.580  10.639
 1436TIP3    H212436   2.202   0.461  10.627
 1437TIP3   OH212437   2.538   0.564  10.481
 1437TIP3    H112438   2.634   0.543  10.479
 1437TIP3    H212439   2.522   0.616  10.401
 1438TIP3   OH212440   3.184   0.253  11.094
 1438TIP3    H112441   3.094   0.266  11.126
 1438TIP3    H212442   3.175   0.206  11.009
 1439TIP3   OH212443   2.415   0.704  10.158
 1439TIP3    H112444   2.394   0.670  10.070
 1439TIP3    H212445   2.511   0.716  10.146
 1440TIP3   OH212446   3.458   1.858  11.748
 1440TIP3    H112447   3.489   1.886  11.660
 1440TIP3    H212448   3.468   1.941  11.796
 1441TIP3   OH212449   2.189   1.145  11.698
 1441TIP3    H112450   2.272   1.159  11.749
 1441TIP3    H212451   2.150   1.075  11.752
 1442TIP3   OH212452   2.788   0.687  10.973
 1442TIP3    H112453   2.863   0.637  10.935
 1442TIP3    H212454   2.734   0.612  11.005
 1443TIP3   OH212455   2.275   0.295  10.575
 1443TIP3    H112456   2.235   0.224  10.629
 1443TIP3    H212457   2.352   0.250  10.539
 1444TIP3   OH212458   2.765   0.466  11.201
 1444TIP3    H112459   2.691   0.530  11.202
 1444TIP3    H212460   2.829   0.504  11.264
 1445TIP3   OH212461   2.769   1.155  10.406
 1445TIP3    H112462   2.702   1.098  10.362
 1445TIP3    H212463   2.720   1.170  10.490
 1446TIP3   OH212464   3.509   1.117  11.295
 1446TIP3    H112465   3.554   1.162  11.219
 1446TIP3    H212466   3.433   1.078  11.247
 1447TIP3   OH212467   3.113   0.407  10.225
 1447TIP3    H112468   3.018   0.402  10.201
 1447TIP3    H212469   3.128   0.503  10.240
 1448TIP3   OH212470   2.832   1.132  11.480
 1448TIP3    H112471   2.867   1.132  11.570
 1448TIP3    H212472   2.816   1.227  11.464
 1449TIP3   OH212473   3.232   0.616  10.342
 1449TIP3    H112474   3.295   0.614  10.416
 1449TIP3    H212475   3.235   0.708  10.312
 1450TIP3   OH212476   2.260   1.084  10.951
 1450TIP3    H112477   2.294   1.065  10.862
 1450TIP3    H212478   2.280   1.004  11.000
 1451TIP3   OH212479   2.988   1.284  10.260
 1451TIP3    H112480   2.951   1.360  10.309
 1451TIP3    H212481   2.919   1.217  10.278
 1452TIP3   OH212482   2.006   0.870  11.462
 1452TIP3    H112483   1.983   0.849  11.554
 1452TIP3    H212484   1.925   0.848  11.412
 1453TIP3   OH212485   2.688   0.853  11.655
 1453TIP3    H112486   2.665   0.850  11.560
 1453TIP3    H212487   2.769   0.799  11.657
 1454TIP3   OH212488   3.161   1.377  11.533
 1454TIP3    H112489   3.069   1.374  11.507
 1454TIP3    H212490   3.153   1.423  11.620
 1455TIP3   OH212491   3.677   0.633  10.317
 1455TIP3    H112492   3.617   0.615  10.241
 1455TIP3    H212493   3.703   0.725  10.297
 1456TIP3   OH212494   3.737   1.234  11.621
 1456TIP3    H112495   3.641   1.249  11.605
 1456TIP3    H212496   3.765   1.196  11.535
 1457TIP3   OH212497   3.483   1.508  10.357
 1457TIP3    H112498   3.456   1.434  10.414
 1457TIP3    H212499   3.549   1.465  10.300
 1458TIP3   OH212500   3.248   0.979  11.077
 1458TIP3    H112501   3.158   0.945  11.058
 1458TIP3    H212502   3.299   0.925  11.013
 1459TIP3   OH212503   2.479   1.400  10.734
 1459TIP3    H112504   2.496   1.481  10.683
 1459TIP3    H212505   2.382   1.394  10.728
 1460TIP3   OH212506   2.163   0.909  10.164
 1460TIP3    H112507   2.203   0.967  10.231
 1460TIP3    H212508   2.071   0.940  10.161
 1461TIP3   OH212509   2.606   1.168  10.666
 1461TIP3    H112510   2.546   1.244  10.681
 1461TIP3    H212511   2.552   1.094  10.701
 1462TIP3   OH212512   2.709   1.585  11.340
 1462TIP3    H112513   2.770   1.656  11.315
 1462TIP3    H212514   2.763   1.540  11.407
 1463TIP3   OH212515   2.499   1.711  10.565
 1463TIP3    H112516   2.417   1.699  10.616
 1463TIP3    H212517   2.535   1.790  10.612
 1464TIP3   OH212518   3.009   1.167  11.257
 1464TIP3    H112519   2.981   1.110  11.332
 1464TIP3    H212520   3.071   1.109  11.210
 1465TIP3   OH212521   3.305   1.305  10.182
 1465TIP3    H112522   3.306   1.269  10.273
 1465TIP3    H212523   3.210   1.289  10.163
 1466TIP3   OH212524   3.325   1.660  11.523
 1466TIP3    H112525   3.250   1.599  11.506
 1466TIP3    H212526   3.334   1.710  11.440
 1467TIP3   OH212527   3.704   1.733  10.191
 1467TIP3    H112528   3.759   1.802  10.151
 1467TIP3    H212529   3.636   1.789  10.234
 1468TIP3   OH212530   2.181   0.345  11.447
 1468TIP3    H112531   2.104   0.374  11.500
 1468TIP3    H212532   2.186   0.251  11.474
 1469TIP3   OH212533   3.368   1.158  10.408
 1469TIP3    H112534   3.345   1.064  10.424
 1469TIP3    H212535   3.466   1.154  10.410
 1470TIP3   OH212536   2.114   1.568  11.278
 1470TIP3    H112537   2.172   1.490  11.281
 1470TIP3    H212538   2.128   1.603  11.367
 1471TIP3   OH212539   2.670   1.469  10.030
 1471TIP3    H112540   2.672   1.400   9.962
 1471TIP3    H212541   2.610   1.429  10.097
 1472TIP3   OH212542   2.554   1.350  10.272
 1472TIP3    H112543   2.641   1.324  10.308
 1472TIP3    H212544   2.555   1.445  10.299
 1473TIP3   OH212545   2.252   1.093  10.351
 1473TIP3    H112546   2.168   1.125  10.391
 1473TIP3    H212547   2.281   1.171  10.300
 1474TIP3   OH212548   3.032   0.362  11.354
 1474TIP3    H112549   3.126   0.336  11.359
 1474TIP3    H212550   2.990   0.287  11.403
 1475TIP3   OH212551   3.122   0.256  10.455
 1475TIP3    H112552   3.110   0.306  10.371
 1475TIP3    H212553   3.156   0.326  10.515
 1476TIP3   OH212554   2.835   1.518  10.317
 1476TIP3    H112555   2.744   1.550  10.338
 1476TIP3    H212556   2.884   1.602  10.318
 1477TIP3   OH212557   2.811   0.519  10.552
 1477TIP3    H112558   2.874   0.591  10.573
 1477TIP3    H212559   2.794   0.478  10.640
 1478TIP3   OH212560   2.907   0.605  11.436
 1478TIP3    H112561   2.921   0.652  11.521
 1478TIP3    H212562   2.954   0.520  11.449
 1479TIP3   OH212563   2.874   0.216  10.611
 1479TIP3    H112564   2.869   0.233  10.708
 1479TIP3    H212565   2.960   0.254  10.588
 1480TIP3   OH212566   2.578   1.602  10.334
 1480TIP3    H112567   2.582   1.681  10.274
 1480TIP3    H212568   2.547   1.648  10.415
 1481TIP3   OH212569   2.378   0.354  10.270
 1481TIP3    H112570   2.372   0.423  10.338
 1481TIP3    H212571   2.467   0.320  10.290
 1482TIP3   OH212572   3.484   0.353  11.588
 1482TIP3    H112573   3.396   0.355  11.545
 1482TIP3    H212574   3.537   0.391  11.514
 1483TIP3   OH212575   3.376   0.795  10.916
 1483TIP3    H112576   3.297   0.736  10.916
 1483TIP3    H212577   3.436   0.745  10.974
 1484TIP3   OH212578   2.282   1.326  10.187
 1484TIP3    H112579   2.352   1.367  10.241
 1484TIP3    H212580   2.337   1.277  10.122
 1485TIP3   OH212581   2.103   0.621  10.101
 1485TIP3    H112582   2.161   0.688  10.143
 1485TIP3    H212583   2.038   0.678  10.057
 1486TIP3   OH212584   3.426   1.667  11.079
 1486TIP3    H112585   3.431   1.728  11.004
 1486TIP3    H212586   3.522   1.650  11.089
 1487TIP3   OH212587   2.228   0.097  10.998
 1487TIP3    H112588   2.215   0.115  10.903
 1487TIP3    H212589   2.178   0.013  11.004
 1488TIP3   OH212590   2.017   1.439  10.563
 1488TIP3    H112591   1.964   1.499  10.616
 1488TIP3    H212592   2.055   1.504  10.499
 1489TIP3   OH212593   2.009   1.753  11.734
 1489TIP3    H112594   2.104   1.752  11.749
 1489TIP3    H212595   1.988   1.657  11.738
 1490TIP3   OH212596   2.438   1.664  11.870
 1490TIP3    H112597   2.525   1.648  11.909
 1490TIP3    H212598   2.432   1.592  11.804
 1491TIP3   OH212599   2.890   1.642  10.031
 1491TIP3    H112600   2.829   1.567  10.043
 1491TIP3    H212601   2.965   1.600   9.987
 1492TIP3   OH212602   3.124   1.522  11.768
 1492TIP3    H112603   3.076   1.447  11.806
 1492TIP3    H212604   3.181   1.545  11.844
 1493TIP3   OH212605   3.339   1.551  10.043
 1493TIP3    H112606   3.346   1.478  10.109
 1493TIP3    H212607   3.420   1.539   9.991
 1494TIP3   OH212608   1.966   1.161  11.920
 1494TIP3    H112609   1.903   1.090  11.897
 1494TIP3    H212610   1.967   1.209  11.836
 1495TIP3   OH212611   2.448   1.157  10.030
 1495TIP3    H112612   2.489   1.130  10.114
 1495TIP3    H212613   2.519   1.133   9.967
 1496TIP3   OH212614   2.674   1.128  11.738
 1496TIP3    H112615   2.653   1.175  11.654
 1496TIP3    H212616   2.691   1.035  11.710
 1497TIP3   OH212617   2.971   1.312   9.986
 1497TIP3    H112618   2.972   1.305  10.083
 1497TIP3    H212619   2.984   1.217   9.962
 1498TIP3   OH212620   3.216   1.109  11.531
 1498TIP3    H112621   3.311   1.131  11.527
 1498TIP3    H212622   3.181   1.201  11.531
 1499TIP3   OH212623   2.101   0.858  11.774
 1499TIP3    H112624   2.079   0.764  11.780
 1499TIP3    H212625   2.098   0.883  11.869
 1500TIP3   OH212626   2.565   0.971  10.270
 1500TIP3    H112627   2.489   0.912  10.278
 1500TIP3    H212628   2.627   0.917  10.216
 1501TIP3   OH212629   2.426   0.708  11.432
 1501TIP3    H112630   2.388   0.786  11.479
 1501TIP3    H212631   2.515   0.746  11.413
 1502TIP3   OH212632   2.676   0.801  10.085
 1502TIP3    H112633   2.674   0.823   9.990
 1502TIP3    H212634   2.773   0.803  10.105
 1503TIP3   OH212635   3.004   1.012  11.866
 1503TIP3    H112636   3.044   0.973  11.787
 1503TIP3    H212637   3.002   0.935  11.925
 1504TIP3   OH212638   3.596   1.008  10.041
 1504TIP3    H112639   3.568   0.977   9.952
 1504TIP3    H212640   3.582   1.106  10.034
 1505TIP3   OH212641   2.509   0.490  11.588
 1505TIP3    H112642   2.553   0.438  11.517
 1505TIP3    H212643   2.459   0.557  11.537
 1506TIP3   OH212644   2.610   0.329  11.373
 1506TIP3    H112645   2.674   0.359  11.305
 1506TIP3    H212646   2.527   0.335  11.322
 1507TIP3   OH212647   2.672   0.854  11.386
 1507TIP3    H112648   2.766   0.874  11.374
 1507TIP3    H212649   2.627   0.935  11.350
 1508TIP3   OH212650   3.097   0.693  11.895
 1508TIP3    H112651   3.100   0.595  11.895
 1508TIP3    H212652   3.191   0.716  11.890
 1509TIP3   OH212653   3.325   0.922  11.705
 1509TIP3    H112654   3.287   0.989  11.645
 1509TIP3    H212655   3.419   0.919  11.677
 1510TIP3   OH212656   2.385   0.545  11.819
 1510TIP3    H112657   2.295   0.532  11.785
 1510TIP3    H212658   2.438   0.519  11.740
 1511TIP3   OH212659   2.672   0.054  11.399
 1511TIP3    H112660   2.652   0.150  11.402
 1511TIP3    H212661   2.591   0.019  11.359
 1512TIP3   OH212662   2.781   0.487  11.731
 1512TIP3    H112663   2.779   0.400  11.777
 1512TIP3    H212664   2.697   0.479  11.683
 1513TIP3   OH212665   3.088   0.371  11.686
 1513TIP3    H112666   2.992   0.378  11.700
 1513TIP3    H212667   3.120   0.350  11.776
 1514TIP3   OH212668   3.199   0.349  11.931
 1514TIP3    H112669   3.202   0.251  11.930
 1514TIP3    H212670   3.171   0.370  12.022
 1515TIP3   OH212671   2.156   0.383  11.780
 1515TIP3    H112672   2.182   0.309  11.723
 1515TIP3    H212673   2.182   0.355  11.870
 1516TIP3   OH212674   2.639   4.511  11.675
 1516TIP3    H112675   2.685   4.432  11.708
 1516TIP3    H212676   2.665   4.512  11.580
 1517TIP3   OH212677   2.727   0.235  11.821
 1517TIP3    H112678   2.698   0.151  11.780
 1517TIP3    H212679   2.660   0.251  11.891
 1518TIP3   OH212680   2.617   1.837  10.227
 1518TIP3    H112681   2.713   1.831  10.232
 1518TIP3    H212682   2.608   1.908  10.161
 1519TIP3   OH212683   2.022   1.319  10.176
 1519TIP3    H112684   2.120   1.325  10.173
 1519TIP3    H212685   2.005   1.255  10.103
 1520TIP3   OH212686   1.916   1.801  10.676
 1520TIP3    H112687   1.841   1.750  10.638
 1520TIP3    H212688   1.951   1.740  10.744
 1521TIP3   OH212689   2.024   1.628  10.860
 1521TIP3    H112690   1.988   1.548  10.907
 1521TIP3    H212691   2.070   1.673  10.935
 1522TIP3   OH212692   3.694   1.655  11.090
 1522TIP3    H112693   3.726   1.691  11.174
 1522TIP3    H212694   3.739   1.712  11.025
 1523TIP3   OH212695   3.655   1.691  11.403
 1523TIP3    H112696   3.606   1.622  11.354
 1523TIP3    H212697   3.708   1.634  11.462
 1524TIP3   OH212698   3.525   1.253  11.933
 1524TIP3    H112699   3.449   1.270  11.991
 1524TIP3    H212700   3.573   1.336  11.938
 1525TIP3   OH212701   3.630   1.114  10.421
 1525TIP3    H112702   3.718   1.154  10.434
 1525TIP3    H212703   3.630   1.042  10.487
 1526TIP3   OH212704   3.698   0.905  10.623
 1526TIP3    H112705   3.618   0.857  10.655
 1526TIP3    H212706   3.719   0.960  10.700
 1527TIP3   OH212707   3.637   1.193  11.071
 1527TIP3    H112708   3.709   1.127  11.064
 1527TIP3    H212709   3.678   1.271  11.028
 1528TIP3   OH212710   3.518   1.463  11.307
 1528TIP3    H112711   3.447   1.519  11.340
 1528TIP3    H212712   3.478   1.424  11.226
 1529TIP3   OH212713   3.754   0.910  10.238
 1529TIP3    H112714   3.681   0.910  10.173
 1529TIP3    H212715   3.732   0.991  10.286
 1530TIP3   OH212716   3.540   0.633  10.088
 1530TIP3    H112717   3.585   0.697  10.030
 1530TIP3    H212718   3.525   0.557  10.027
 1531TIP3   OH212719   3.485   0.767  10.677
 1531TIP3    H112720   3.471   0.672  10.661
 1531TIP3    H212721   3.448   0.777  10.768
 1532TIP3   OH212722   1.966   1.028  11.062
 1532TIP3    H112723   1.947   0.971  10.984
 1532TIP3    H212724   2.052   0.988  11.090
 1533TIP3   OH212725   3.569   0.940  11.598
 1533TIP3    H112726   3.616   0.859  11.629
 1533TIP3    H212727   3.640   0.991  11.557
 1534TIP3   OH212728   3.648   0.709  11.712
 1534TIP3    H112729   3.556   0.673  11.708
 1534TIP3    H212730   3.698   0.626  11.718
 1535TIP3   OH212731   3.522   0.389   9.986
 1535TIP3    H112732   3.552   0.342  10.065
 1535TIP3    H212733   3.425   0.370   9.985
 1536TIP3   OH212734   3.408   0.565  10.532
 1536TIP3    H112735   3.432   0.469  10.536
 1536TIP3    H212736   3.490   0.600  10.495
 1537TIP3   OH212737   3.522   0.605  11.079
 1537TIP3    H112738   3.621   0.604  11.085
 1537TIP3    H212739   3.505   0.597  11.175
 1538TIP3   OH212740   3.520   0.677  11.352
 1538TIP3    H112741   3.425   0.693  11.369
 1538TIP3    H212742   3.551   0.761  11.313
 1539TIP3   OH212743   1.926   0.486  11.678
 1539TIP3    H112744   2.010   0.482  11.728
 1539TIP3    H212745   1.902   0.391  11.683
 1540TIP3   OH212746   3.727   0.080  11.895
 1540TIP3    H112747   3.742   0.016  11.824
 1540TIP3    H212748   3.711   0.163  11.845
 1541TIP3   OH212749   3.483   0.315  10.555
 1541TIP3    H112750   3.517   0.261  10.630
 1541TIP3    H212751   3.470   0.246  10.488
 1542TIP3   OH212752   2.069   0.309  11.078
 1542TIP3    H112753   2.139   0.240  11.075
 1542TIP3    H212754   2.119   0.392  11.070
 1543TIP3   OH212755   1.903   0.616  11.119
 1543TIP3    H112756   1.948   0.605  11.033
 1543TIP3    H212757   1.964   0.675  11.165
 1544TIP3   OH212758   3.724   0.229  11.666
 1544TIP3    H112759   3.639   0.279  11.679
 1544TIP3    H212760   3.685   0.148  11.625
 1545TIP3   OH212761   3.687   0.230  10.217
 1545TIP3    H112762   3.728   0.179  10.144
 1545TIP3    H212763   3.761   0.284  10.252
 1546TIP3   OH212764   1.906   0.243  10.495
 1546TIP3    H112765   1.811   0.232  10.478
 1546TIP3    H212766   1.927   0.314  10.430
 1547TIP3   OH212767   3.385   1.743  10.695
 1547TIP3    H112768   3.464   1.752  10.638
 1547TIP3    H212769   3.377   1.830  10.739
 1548TIP3   OH212770   1.894   0.126  11.293
 1548TIP3    H112771   1.856   0.126  11.382
 1548TIP3    H212772   1.841   0.194  11.248
 1549TIP3   OH212773   2.148   1.456  11.762
 1549TIP3    H112774   2.058   1.460  11.722
 1549TIP3    H212775   2.136   1.410  11.846
 1550TIP3   OH212776   2.448   1.588  11.411
 1550TIP3    H112777   2.432   1.672  11.363
 1550TIP3    H212778   2.542   1.573  11.387
 1551TIP3   OH212779   2.856   1.691  11.616
 1551TIP3    H112780   2.858   1.666  11.711
 1551TIP3    H212781   2.937   1.746  11.609
 1552TIP3   OH212782   3.069   1.853  11.584
 1552TIP3    H112783   3.138   1.801  11.539
 1552TIP3    H212784   3.105   1.858  11.673
 1553TIP3   OH212785   3.555   0.061  11.544
 1553TIP3    H112786   3.497   0.113  11.486
 1553TIP3    H212787   3.578  -0.013  11.485
 1554TIP3   OH212788   2.165   1.885  11.384
 1554TIP3    H112789   2.089   1.941  11.356
 1554TIP3    H212790   2.162   1.895  11.480
 1555TIP3   OH212791   2.386   1.801  11.261
 1555TIP3    H112792   2.298   1.832  11.293
 1555TIP3    H212793   2.408   1.868  11.193
 1556TIP3   OH212794   2.876   1.784  11.196
 1556TIP3    H112795   2.805   1.823  11.144
 1556TIP3    H212796   2.903   1.860  11.252
 1557TIP3   OH212797   3.082   1.665  11.323
 1557TIP3    H112798   3.010   1.701  11.267
 1557TIP3    H212799   3.155   1.722  11.293
 1558TIP3   OH212800   3.344   1.805  11.287
 1558TIP3    H112801   3.358   1.895  11.251
 1558TIP3    H212802   3.372   1.753  11.208
 1559TIP3   OH212803   2.142   1.736  11.074
 1559TIP3    H112804   2.118   1.686  11.155
 1559TIP3    H212805   2.233   1.701  11.056
 1560TIP3   OH212806   2.357   1.636  10.944
 1560TIP3    H112807   2.325   1.543  10.943
 1560TIP3    H212808   2.441   1.622  10.993
 1561TIP3   OH212809   2.583   1.568  11.095
 1561TIP3    H112810   2.612   1.484  11.055
 1561TIP3    H212811   2.617   1.557  11.186
 1562TIP3   OH212812   2.881   0.217  10.882
 1562TIP3    H112813   2.808   0.162  10.922
 1562TIP3    H212814   2.931   0.246  10.960
 1563TIP3   OH212815   3.412   0.117  10.961
 1563TIP3    H112816   3.492   0.123  10.904
 1563TIP3    H212817   3.342   0.101  10.895
 1564TIP3   OH212818   3.611   0.166  10.789
 1564TIP3    H112819   3.675   0.097  10.764
 1564TIP3    H212820   3.672   0.241  10.809
 1565TIP3   OH212821   2.177   0.076  10.722
 1565TIP3    H112822   2.117   0.058  10.647
 1565TIP3    H212823   2.175  -0.013  10.761
 1566TIP3   OH212824   2.040   0.070  10.322
 1566TIP3    H112825   2.080   0.124  10.250
 1566TIP3    H212826   1.978   0.135  10.360
 1567TIP3   OH212827   2.620   0.020  10.683
 1567TIP3    H112828   2.673   0.089  10.642
 1567TIP3    H212829   2.633   0.042  10.778
 1568TIP3   OH212830   3.178   0.093  10.800
 1568TIP3    H112831   3.136   0.138  10.726
 1568TIP3    H212832   3.117   0.018  10.816
 1569TIP3   OH212833   3.314   0.066  10.458
 1569TIP3    H112834   3.238   0.128  10.460
 1569TIP3    H212835   3.309   0.024  10.546
 1570TIP3   OH212836   2.050   1.657  10.403
 1570TIP3    H112837   1.954   1.657  10.389
 1570TIP3    H212838   2.071   1.746  10.370
 1571TIP3   OH212839   2.175   0.231  10.143
 1571TIP3    H112840   2.242   0.181  10.091
 1571TIP3    H212841   2.233   0.275  10.209
 1572TIP3   OH212842   2.726   0.291  10.397
 1572TIP3    H112843   2.768   0.238  10.469
 1572TIP3    H212844   2.753   0.380  10.426
 1573TIP3   OH212845   2.946   1.779  10.258
 1573TIP3    H112846   3.036   1.797  10.226
 1573TIP3    H212847   2.912   1.735  10.177
 1574TIP3   OH212848   3.587   1.707  10.502
 1574TIP3    H112849   3.553   1.635  10.446
 1574TIP3    H212850   3.583   1.784  10.441
 1575TIP3   OH212851   2.169   0.124  11.640
 1575TIP3    H112852   2.103   0.127  11.710
 1575TIP3    H212853   2.249   0.096  11.688
 1576TIP3   OH212854   2.344   0.094  11.857
 1576TIP3    H112855   2.441   0.102  11.855
 1576TIP3    H212856   2.338  -0.004  11.858
 1577TIP3   OH212857   2.134   1.734  10.084
 1577TIP3    H112858   2.111   1.778  10.168
 1577TIP3    H212859   2.214   1.685  10.109
 1578TIP3   OH212860   3.199   0.079  11.866
 1578TIP3    H112861   3.163  -0.000  11.914
 1578TIP3    H212862   3.290   0.049  11.849
 1579TIP3   OH212863   3.535   1.588  11.679
 1579TIP3    H112864   3.458   1.593  11.618
 1579TIP3    H212865   3.521   1.671  11.727
 1580TIP3   OH212866   4.037   0.896  11.248
 1580TIP3    H112867   3.984   0.850  11.316
 1580TIP3    H212868   4.114   0.925  11.301
 1581TIP3   OH212869   4.167   1.366  11.071
 1581TIP3    H112870   4.113   1.294  11.034
 1581TIP3    H212871   4.254   1.320  11.068
 1582TIP3   OH212872   3.836   0.681  10.583
 1582TIP3    H112873   3.806   0.775  10.589
 1582TIP3    H212874   3.755   0.642  10.547
 1583TIP3   OH212875   3.935   0.907  10.866
 1583TIP3    H112876   3.941   0.809  10.855
 1583TIP3    H212877   3.983   0.946  10.792
 1584TIP3   OH212878   4.241   0.366  10.848
 1584TIP3    H112879   4.325   0.406  10.814
 1584TIP3    H212880   4.203   0.332  10.766
 1585TIP3   OH212881   3.955   0.643  10.924
 1585TIP3    H112882   4.031   0.622  10.981
 1585TIP3    H212883   3.974   0.583  10.849
 1586TIP3   OH212884   4.206   0.320  11.268
 1586TIP3    H112885   4.173   0.382  11.201
 1586TIP3    H212886   4.126   0.316  11.326
 1587TIP3   OH212887   4.414   1.034  11.271
 1587TIP3    H112888   4.363   1.117  11.281
 1587TIP3    H212889   4.480   1.056  11.201
 1588TIP3   OH212890   4.170   0.521  11.054
 1588TIP3    H112891   4.238   0.580  11.090
 1588TIP3    H212892   4.215   0.481  10.976
 1589TIP3   OH212893   4.302   1.268  11.327
 1589TIP3    H112894   4.295   1.365  11.315
 1589TIP3    H212895   4.210   1.248  11.352
 1590TIP3   OH212896   3.905   1.211  10.415
 1590TIP3    H112897   3.897   1.257  10.328
 1590TIP3    H212898   3.893   1.289  10.474
 1591TIP3   OH212899   4.328   0.956  10.762
 1591TIP3    H112900   4.309   0.921  10.672
 1591TIP3    H212901   4.404   0.900  10.785
 1592TIP3   OH212902   4.411   1.255  10.977
 1592TIP3    H112903   4.437   1.264  10.885
 1592TIP3    H212904   4.490   1.290  11.024
 1593TIP3   OH212905   4.334   0.858  11.091
 1593TIP3    H112906   4.345   0.910  11.010
 1593TIP3    H212907   4.360   0.926  11.158
 1594TIP3   OH212908   4.420   1.258  11.576
 1594TIP3    H112909   4.398   1.350  11.605
 1594TIP3    H212910   4.376   1.258  11.489
 1595TIP3   OH212911   4.160   0.933  11.496
 1595TIP3    H112912   4.201   0.998  11.556
 1595TIP3    H212913   4.077   0.913  11.544
 1596TIP3   OH212914   4.302   1.494  11.641
 1596TIP3    H112915   4.278   1.509  11.548
 1596TIP3    H212916   4.214   1.486  11.685
 1597TIP3   OH212917   4.276   0.856  10.504
 1597TIP3    H112918   4.217   0.919  10.458
 1597TIP3    H212919   4.215   0.791  10.543
 1598TIP3   OH212920   3.839   1.162  11.385
 1598TIP3    H112921   3.802   1.161  11.295
 1598TIP3    H212922   3.892   1.080  11.385
 1599TIP3   OH212923   3.821   1.424  11.027
 1599TIP3    H112924   3.893   1.429  11.093
 1599TIP3    H212925   3.764   1.498  11.058
 1600TIP3   OH212926   4.145   1.688  10.688
 1600TIP3    H112927   4.164   1.631  10.767
 1600TIP3    H212928   4.062   1.651  10.654
 1601TIP3   OH212929   4.063   1.271  11.467
 1601TIP3    H112930   4.061   1.233  11.558
 1601TIP3    H212931   3.968   1.269  11.444
 1602TIP3   OH212932   4.308   0.108  11.131
 1602TIP3    H112933   4.262   0.120  11.047
 1602TIP3    H212934   4.270   0.181  11.183
 1603TIP3   OH212935   4.290   0.678  11.293
 1603TIP3    H112936   4.194   0.663  11.301
 1603TIP3    H212937   4.296   0.741  11.218
 1604TIP3   OH212938   4.234   0.647  10.729
 1604TIP3    H112939   4.154   0.595  10.747
 1604TIP3    H212940   4.284   0.588  10.672
 1605TIP3   OH212941   4.048   0.600  11.367
 1605TIP3    H112942   4.106   0.567  11.437
 1605TIP3    H212943   4.008   0.518  11.334
 1606TIP3   OH212944   4.409   0.382  10.065
 1606TIP3    H112945   4.362   0.345  10.141
 1606TIP3    H212946   4.344   0.444  10.028
 1607TIP3   OH212947   3.795   0.351  10.832
 1607TIP3    H112948   3.855   0.358  10.910
 1607TIP3    H212949   3.853   0.372  10.758
 1608TIP3   OH212950   3.865   0.418  10.315
 1608TIP3    H112951   3.931   0.439  10.246
 1608TIP3    H212952   3.807   0.497  10.309
 1609TIP3   OH212953   4.004   0.502  10.696
 1609TIP3    H112954   3.952   0.570  10.646
 1609TIP3    H212955   4.024   0.439  10.624
 1610TIP3   OH212956   4.369   0.535  10.466
 1610TIP3    H112957   4.457   0.567  10.494
 1610TIP3    H212958   4.339   0.611  10.413
 1611TIP3   OH212959   4.314   0.697  10.221
 1611TIP3    H112960   4.227   0.660  10.200
 1611TIP3    H212961   4.360   0.672  10.139
 1612TIP3   OH212962   4.048   1.165  11.725
 1612TIP3    H112963   4.138   1.142  11.756
 1612TIP3    H212964   3.999   1.089  11.761
 1613TIP3   OH212965   4.164   0.255  10.579
 1613TIP3    H112966   4.098   0.201  10.628
 1613TIP3    H212967   4.247   0.208  10.600
 1614TIP3   OH212968   4.145   1.082  10.945
 1614TIP3    H112969   4.215   1.058  10.881
 1614TIP3    H212970   4.112   0.996  10.975
 1615TIP3   OH212971   3.866   0.881  11.465
 1615TIP3    H112972   3.883   0.855  11.558
 1615TIP3    H212973   3.804   0.812  11.434
 1616TIP3   OH212974   4.406   1.406  10.691
 1616TIP3    H112975   4.407   1.335  10.624
 1616TIP3    H212976   4.321   1.447  10.677
 1617TIP3   OH212977   4.063   0.921  10.148
 1617TIP3    H112978   4.101   0.970  10.224
 1617TIP3    H212979   3.968   0.939  10.161
 1618TIP3   OH212980   4.410   1.726  10.605
 1618TIP3    H112981   4.316   1.712  10.633
 1618TIP3    H212982   4.459   1.696  10.684
 1619TIP3   OH212983   4.005   0.333  11.437
 1619TIP3    H112984   3.958   0.383  11.505
 1619TIP3    H212985   3.994   0.242  11.470
 1620TIP3   OH212986   3.983   1.544  11.282
 1620TIP3    H112987   4.046   1.471  11.284
 1620TIP3    H212988   3.995   1.582  11.371
 1621TIP3   OH212989   4.385   1.375  10.369
 1621TIP3    H112990   4.446   1.324  10.313
 1621TIP3    H212991   4.398   1.467  10.339
 1622TIP3   OH212992   4.136   1.088  10.345
 1622TIP3    H112993   4.054   1.116  10.392
 1622TIP3    H212994   4.162   1.174  10.308
 1623TIP3   OH212995   4.397   1.661  10.338
 1623TIP3    H112996   4.392   1.739  10.281
 1623TIP3    H212997   4.395   1.697  10.430
 1624TIP3   OH212998   4.250   0.335  10.274
 1624TIP3    H112999   4.281   0.408  10.332
 1624TIP3    H213000   4.224   0.273  10.345
 1625TIP3   OH213001   4.164   1.349  10.208
 1625TIP3    H113002   4.233   1.368  10.275
 1625TIP3    H213003   4.214   1.297  10.141
 1626TIP3   OH213004   4.046   0.630  10.130
 1626TIP3    H113005   4.028   0.706  10.187
 1626TIP3    H213006   4.030   0.670  10.042
 1627TIP3   OH213007   4.050   0.084  11.019
 1627TIP3    H113008   4.039   0.084  10.921
 1627TIP3    H213009   4.012  -0.003  11.038
 1628TIP3   OH213010   3.879   1.450  10.554
 1628TIP3    H113011   3.841   1.511  10.619
 1628TIP3    H213012   3.907   1.514  10.484
 1629TIP3   OH213013   3.839   1.727  11.713
 1629TIP3    H113014   3.931   1.712  11.739
 1629TIP3    H213015   3.820   1.644  11.662
 1630TIP3   OH213016   4.368   1.613  11.967
 1630TIP3    H113017   4.461   1.597  11.985
 1630TIP3    H213018   4.358   1.577  11.877
 1631TIP3   OH213019   3.866   1.178  11.946
 1631TIP3    H113020   3.817   1.094  11.936
 1631TIP3    H213021   3.869   1.207  11.853
 1632TIP3   OH213022   4.279   1.168  10.047
 1632TIP3    H113023   4.269   1.084  10.096
 1632TIP3    H213024   4.376   1.170  10.033
 1633TIP3   OH213025   3.938   0.861  11.744
 1633TIP3    H113026   3.862   0.800  11.757
 1633TIP3    H213027   3.964   0.875  11.837
 1634TIP3   OH213028   4.421   0.953  10.248
 1634TIP3    H113029   4.420   0.967  10.344
 1634TIP3    H213030   4.371   0.870  10.242
 1635TIP3   OH213031   4.349   0.750  11.552
 1635TIP3    H113032   4.271   0.804  11.525
 1635TIP3    H213033   4.380   0.729  11.462
 1636TIP3   OH213034   4.297   0.484  11.598
 1636TIP3    H113035   4.361   0.436  11.543
 1636TIP3    H213036   4.315   0.575  11.567
 1637TIP3   OH213037   4.463   0.365  11.370
 1637TIP3    H113038   4.497   0.401  11.287
 1637TIP3    H213039   4.371   0.345  11.343
 1638TIP3   OH213040   4.227   0.604  11.857
 1638TIP3    H113041   4.182   0.545  11.793
 1638TIP3    H213042   4.285   0.653  11.797
 1639TIP3   OH213043   4.030   0.403  11.772
 1639TIP3    H113044   4.090   0.349  11.719
 1639TIP3    H213045   4.065   0.393  11.862
 1640TIP3   OH213046   3.904   1.321  10.170
 1640TIP3    H113047   4.002   1.337  10.168
 1640TIP3    H213048   3.892   1.267  10.089
 1641TIP3   OH213049   3.782   1.797  10.667
 1641TIP3    H113050   3.706   1.753  10.622
 1641TIP3    H213051   3.808   1.730  10.734
 1642TIP3   OH213052   3.870   1.626  10.847
 1642TIP3    H113053   3.850   1.539  10.889
 1642TIP3    H213054   3.927   1.667  10.915
 1643TIP3   OH213055   3.846   1.022  11.082
 1643TIP3    H113056   3.869   0.973  10.999
 1643TIP3    H213057   3.926   0.997  11.134
 1644TIP3   OH213058   3.820   0.476  11.623
 1644TIP3    H113059   3.885   0.489  11.696
 1644TIP3    H213060   3.792   0.383  11.647
 1645TIP3   OH213061   3.963   0.336  11.048
 1645TIP3    H113062   4.006   0.248  11.041
 1645TIP3    H213063   4.037   0.399  11.034
 1646TIP3   OH213064   3.783   0.625  11.134
 1646TIP3    H113065   3.844   0.611  11.059
 1646TIP3    H213066   3.803   0.717  11.158
 1647TIP3   OH213067   3.762   0.255  10.505
 1647TIP3    H113068   3.670   0.287  10.494
 1647TIP3    H213069   3.809   0.310  10.440
 1648TIP3   OH213070   3.729   0.109  11.321
 1648TIP3    H113071   3.713   0.153  11.406
 1648TIP3    H213072   3.687   0.170  11.258
 1649TIP3   OH213073   4.055   1.449  11.783
 1649TIP3    H113074   3.961   1.468  11.774
 1649TIP3    H213075   4.055   1.352  11.781
 1650TIP3   OH213076   4.318   1.528  11.373
 1650TIP3    H113077   4.293   1.613  11.328
 1650TIP3    H213078   4.412   1.543  11.385
 1651TIP3   OH213079   4.030   1.867  11.373
 1651TIP3    H113080   3.958   1.913  11.326
 1651TIP3    H213081   4.038   1.917  11.456
 1652TIP3   OH213082   4.237   1.748  11.270
 1652TIP3    H113083   4.151   1.787  11.303
 1652TIP3    H213084   4.277   1.826  11.225
 1653TIP3   OH213085   4.019   1.701  11.059
 1653TIP3    H113086   4.009   1.654  11.145
 1653TIP3    H213087   4.103   1.662  11.025
 1654TIP3   OH213088   4.210   1.569  10.913
 1654TIP3    H113089   4.173   1.490  10.958
 1654TIP3    H213090   4.295   1.573  10.962
 1655TIP3   OH213091   4.424   1.601  11.073
 1655TIP3    H113092   4.449   1.543  11.146
 1655TIP3    H213093   4.417   1.690  11.111
 1656TIP3   OH213094   4.027   0.084  10.746
 1656TIP3    H113095   3.965   0.035  10.688
 1656TIP3    H213096   4.100   0.017  10.748
 1657TIP3   OH213097   3.909   0.055  10.309
 1657TIP3    H113098   3.965   0.115  10.255
 1657TIP3    H213099   3.842   0.117  10.343
 1658TIP3   OH213100   3.907   1.643  10.372
 1658TIP3    H113101   3.813   1.660  10.355
 1658TIP3    H213102   3.944   1.731  10.354
 1659TIP3   OH213103   4.069   0.193  10.137
 1659TIP3    H113104   4.122   0.141  10.073
 1659TIP3    H213105   4.140   0.251  10.173
 1660TIP3   OH213106   4.042   0.068  11.662
 1660TIP3    H113107   3.962   0.099  11.705
 1660TIP3    H213108   4.108   0.080  11.733
 1661TIP3   OH213109   4.235   0.115  11.865
 1661TIP3    H113110   4.329   0.136  11.863
 1661TIP3    H213111   4.236   0.018  11.849
 1662TIP3   OH213112   4.098   1.759  10.094
 1662TIP3    H113113   4.039   1.785  10.167
 1662TIP3    H213114   4.145   1.683  10.131
 1663TIP3   OH213115   1.225   2.888  10.690
 1663TIP3    H113116   1.213   2.980  10.719
 1663TIP3    H213117   1.148   2.876  10.633
 1664TIP3   OH213118   1.106   2.750  11.031
 1664TIP3    H113119   1.108   2.720  11.124
 1664TIP3    H213120   1.011   2.757  11.011
 1665TIP3   OH213121   0.318   2.720  11.170
 1665TIP3    H113122   0.305   2.646  11.232
 1665TIP3    H213123   0.407   2.703  11.132
 1666TIP3   OH213124   1.441   3.069  10.900
 1666TIP3    H113125   1.429   2.996  10.964
 1666TIP3    H213126   1.459   3.144  10.958
 1667TIP3   OH213127   0.405   3.189  11.036
 1667TIP3    H113128   0.376   3.109  10.985
 1667TIP3    H213129   0.501   3.186  11.015
 1668TIP3   OH213130   0.109   2.526  10.589
 1668TIP3    H113131   0.098   2.622  10.586
 1668TIP3    H213132   0.044   2.500  10.657
 1669TIP3   OH213133   0.084   2.746  10.815
 1669TIP3    H113134   0.119   2.668  10.861
 1669TIP3    H213135   0.164   2.789  10.782
 1670TIP3   OH213136   1.198   3.598  10.958
 1670TIP3    H113137   1.259   3.558  10.892
 1670TIP3    H213138   1.136   3.525  10.970
 1671TIP3   OH213139   0.897   3.084  11.151
 1671TIP3    H113140   0.921   3.025  11.079
 1671TIP3    H213141   0.986   3.106  11.186
 1672TIP3   OH213142   1.753   2.192  11.105
 1672TIP3    H113143   1.774   2.237  11.189
 1672TIP3    H213144   1.836   2.207  11.057
 1673TIP3   OH213145   1.257   2.499  11.145
 1673TIP3    H113146   1.269   2.405  11.163
 1673TIP3    H213147   1.237   2.495  11.050
 1674TIP3   OH213148   0.576   2.256  10.826
 1674TIP3    H113149   0.596   2.336  10.772
 1674TIP3    H213150   0.507   2.218  10.769
 1675TIP3   OH213151   1.308   2.278  10.662
 1675TIP3    H113152   1.383   2.253  10.720
 1675TIP3    H213153   1.305   2.374  10.674
 1676TIP3   OH213154   0.258   2.507  10.917
 1676TIP3    H113155   0.333   2.458  10.957
 1676TIP3    H213156   0.265   2.475  10.826
 1677TIP3   OH213157   0.653   2.672  10.859
 1677TIP3    H113158   0.741   2.638  10.889
 1677TIP3    H213159   0.631   2.602  10.792
 1678TIP3   OH213160   1.779   2.315  11.368
 1678TIP3    H113161   1.743   2.405  11.349
 1678TIP3    H213162   1.838   2.335  11.443
 1679TIP3   OH213163   0.499   2.177  11.257
 1679TIP3    H113164   0.472   2.244  11.191
 1679TIP3    H213165   0.421   2.178  11.317
 1680TIP3   OH213166   1.135   3.138  10.592
 1680TIP3    H113167   1.120   3.130  10.495
 1680TIP3    H213168   1.120   3.234  10.602
 1681TIP3   OH213169   0.679   2.949  11.241
 1681TIP3    H113170   0.613   3.007  11.283
 1681TIP3    H213171   0.742   3.018  11.208
 1682TIP3   OH213172   1.501   2.243  10.854
 1682TIP3    H113173   1.453   2.217  10.934
 1682TIP3    H213174   1.588   2.263  10.892
 1683TIP3   OH213175   0.461   2.373  11.048
 1683TIP3    H113176   0.525   2.435  11.088
 1683TIP3    H213177   0.512   2.330  10.976
 1684TIP3   OH213178   0.568   3.174  11.319
 1684TIP3    H113179   0.536   3.197  11.231
 1684TIP3    H213180   0.486   3.188  11.372
 1685TIP3   OH213181   0.171   3.098  10.366
 1685TIP3    H113182   0.192   3.191  10.342
 1685TIP3    H213183   0.129   3.106  10.452
 1686TIP3   OH213184   1.497   3.285  11.099
 1686TIP3    H113185   1.403   3.307  11.118
 1686TIP3    H213186   1.524   3.368  11.055
 1687TIP3   OH213187   1.484   2.148  11.231
 1687TIP3    H113188   1.406   2.166  11.174
 1687TIP3    H213189   1.559   2.169  11.173
 1688TIP3   OH213190   0.788   1.891  10.988
 1688TIP3    H113191   0.766   1.797  10.977
 1688TIP3    H213192   0.699   1.929  11.006
 1689TIP3   OH213193   1.348   3.472  10.757
 1689TIP3    H113194   1.364   3.387  10.709
 1689TIP3    H213195   1.426   3.526  10.730
 1690TIP3   OH213196   1.427   3.242  10.614
 1690TIP3    H113197   1.413   3.180  10.539
 1690TIP3    H213198   1.426   3.179  10.688
 1691TIP3   OH213199   1.606   3.126  11.467
 1691TIP3    H113200   1.594   3.054  11.401
 1691TIP3    H213201   1.627   3.200  11.407
 1692TIP3   OH213202   1.055   2.806  10.447
 1692TIP3    H113203   1.017   2.896  10.438
 1692TIP3    H213204   1.143   2.817  10.405
 1693TIP3   OH213205   1.071   2.696  10.146
 1693TIP3    H113206   1.125   2.740  10.214
 1693TIP3    H213207   1.085   2.603  10.172
 1694TIP3   OH213208   1.814   2.763  11.259
 1694TIP3    H113209   1.755   2.841  11.265
 1694TIP3    H213210   1.876   2.793  11.189
 1695TIP3   OH213211   1.450   2.786  10.542
 1695TIP3    H113212   1.380   2.821  10.602
 1695TIP3    H213213   1.504   2.734  10.604
 1696TIP3   OH213214   1.376   2.618  11.491
 1696TIP3    H113215   1.358   2.697  11.544
 1696TIP3    H213216   1.344   2.651  11.405
 1697TIP3   OH213217   0.607   2.879  10.711
 1697TIP3    H113218   0.531   2.845  10.659
 1697TIP3    H213219   0.636   2.800  10.762
 1698TIP3   OH213220   0.681   3.179  10.981
 1698TIP3    H113221   0.682   3.182  10.884
 1698TIP3    H213222   0.770   3.150  11.010
 1699TIP3   OH213223   0.589   2.738  11.112
 1699TIP3    H113224   0.619   2.733  11.018
 1699TIP3    H213225   0.636   2.817  11.148
 1700TIP3   OH213226   1.236   3.322  11.160
 1700TIP3    H113227   1.220   3.372  11.241
 1700TIP3    H213228   1.227   3.230  11.194
 1701TIP3   OH213229   0.691   3.203  11.562
 1701TIP3    H113230   0.611   3.244  11.602
 1701TIP3    H213231   0.658   3.183  11.472
 1702TIP3   OH213232   1.297   2.777  10.326
 1702TIP3    H113233   1.367   2.779  10.397
 1702TIP3    H213234   1.344   2.814  10.248
 1703TIP3   OH213235   0.423   2.778  11.474
 1703TIP3    H113236   0.391   2.844  11.536
 1703TIP3    H213237   0.354   2.782  11.404
 1704TIP3   OH213238   1.065   3.418  10.597
 1704TIP3    H113239   1.058   3.442  10.689
 1704TIP3    H213240   1.032   3.499  10.552
 1705TIP3   OH213241   0.491   3.349  11.689
 1705TIP3    H113242   0.498   3.417  11.618
 1705TIP3    H213243   0.398   3.361  11.715
 1706TIP3   OH213244   1.666   1.892  10.357
 1706TIP3    H113245   1.582   1.925  10.397
 1706TIP3    H213246   1.693   1.969  10.303
 1707TIP3   OH213247   0.412   2.762  10.549
 1707TIP3    H113248   0.412   2.821  10.471
 1707TIP3    H213249   0.413   2.675  10.507
 1708TIP3   OH213250   1.787   3.319  10.171
 1708TIP3    H113251   1.815   3.413  10.174
 1708TIP3    H213252   1.873   3.272  10.175
 1709TIP3   OH213253   0.146   3.026  11.393
 1709TIP3    H113254   0.060   3.056  11.426
 1709TIP3    H213255   0.142   2.930  11.417
 1710TIP3   OH213256   0.114   3.278  11.090
 1710TIP3    H113257   0.197   3.233  11.067
 1710TIP3    H213258   0.147   3.341  11.156
 1711TIP3   OH213259   1.903   3.323  11.605
 1711TIP3    H113260   1.889   3.226  11.599
 1711TIP3    H213261   1.814   3.353  11.635
 1712TIP3   OH213262   0.927   3.336  11.520
 1712TIP3    H113263   0.930   3.429  11.553
 1712TIP3    H213264   0.831   3.315  11.523
 1713TIP3   OH213265   1.002   3.659  10.495
 1713TIP3    H113266   1.026   3.693  10.405
 1713TIP3    H213267   0.992   3.745  10.540
 1714TIP3   OH213268   0.396   3.542  10.686
 1714TIP3    H113269   0.403   3.517  10.781
 1714TIP3    H213270   0.341   3.465  10.656
 1715TIP3   OH213271   1.329   3.591  10.191
 1715TIP3    H113272   1.379   3.522  10.141
 1715TIP3    H213273   1.350   3.564  10.283
 1716TIP3   OH213274   1.285   3.595  10.468
 1716TIP3    H113275   1.194   3.609  10.496
 1716TIP3    H213276   1.307   3.516  10.518
 1717TIP3   OH213277   1.530   2.494  11.719
 1717TIP3    H113278   1.479   2.531  11.644
 1717TIP3    H213279   1.533   2.400  11.695
 1718TIP3   OH213280   0.344   3.187  11.463
 1718TIP3    H113281   0.333   3.163  11.556
 1718TIP3    H213282   0.263   3.142  11.430
 1719TIP3   OH213283   0.558   2.013  11.051
 1719TIP3    H113284   0.465   2.033  11.027
 1719TIP3    H213285   0.563   2.067  11.133
 1720TIP3   OH213286   1.057   1.968  11.380
 1720TIP3    H113287   1.095   1.924  11.459
 1720TIP3    H213288   0.960   1.964  11.396
 1721TIP3   OH213289   1.317   2.355  11.501
 1721TIP3    H113290   1.252   2.333  11.572
 1721TIP3    H213291   1.309   2.453  11.494
 1722TIP3   OH213292   1.435   2.890  10.128
 1722TIP3    H113293   1.424   2.891  10.030
 1722TIP3    H213294   1.531   2.897  10.134
 1723TIP3   OH213295   1.002   2.236  10.143
 1723TIP3    H113296   0.981   2.219  10.237
 1723TIP3    H213297   0.941   2.172  10.103
 1724TIP3   OH213298   0.599   2.515  11.250
 1724TIP3    H113299   0.508   2.514  11.286
 1724TIP3    H213300   0.603   2.606  11.211
 1725TIP3   OH213301   0.605   2.486  10.681
 1725TIP3    H113302   0.508   2.497  10.663
 1725TIP3    H213303   0.639   2.466  10.592
 1726TIP3   OH213304   1.131   2.597  10.588
 1726TIP3    H113305   1.090   2.672  10.538
 1726TIP3    H213306   1.192   2.565  10.519
 1727TIP3   OH213307   1.027   2.622  11.686
 1727TIP3    H113308   0.990   2.535  11.708
 1727TIP3    H213309   1.095   2.628  11.757
 1728TIP3   OH213310   1.238   2.535  10.844
 1728TIP3    H113311   1.222   2.628  10.819
 1728TIP3    H213312   1.187   2.494  10.772
 1729TIP3   OH213313   0.343   2.496  11.334
 1729TIP3    H113314   0.336   2.538  11.421
 1729TIP3    H213315   0.304   2.409  11.353
 1730TIP3   OH213316   0.652   2.274  10.067
 1730TIP3    H113317   0.597   2.232  10.136
 1730TIP3    H213318   0.587   2.320  10.010
 1731TIP3   OH213319   0.067   2.242  10.817
 1731TIP3    H113320   0.077   2.242  10.915
 1731TIP3    H213321   0.063   2.145  10.799
 1732TIP3   OH213322   0.103   2.323  10.301
 1732TIP3    H113323   0.170   2.384  10.264
 1732TIP3    H213324   0.063   2.292  10.217
 1733TIP3   OH213325   1.158   2.712  11.302
 1733TIP3    H113326   1.208   2.643  11.254
 1733TIP3    H213327   1.096   2.654  11.352
 1734TIP3   OH213328   0.845   2.269  10.805
 1734TIP3    H113329   0.749   2.261  10.825
 1734TIP3    H213330   0.887   2.217  10.877
 1735TIP3   OH213331   0.349   2.430  10.656
 1735TIP3    H113332   0.263   2.449  10.611
 1735TIP3    H213333   0.352   2.332  10.645
 1736TIP3   OH213334   0.679   2.432  10.425
 1736TIP3    H113335   0.772   2.450  10.406
 1736TIP3    H213336   0.633   2.480  10.353
 1737TIP3   OH213337   1.264   2.188  11.088
 1737TIP3    H113338   1.196   2.199  11.158
 1737TIP3    H213339   1.223   2.133  11.021
 1738TIP3   OH213340   0.565   2.578  10.186
 1738TIP3    H113341   0.526   2.522  10.116
 1738TIP3    H213342   0.648   2.606  10.143
 1739TIP3   OH213343   1.554   3.764  11.731
 1739TIP3    H113344   1.599   3.784  11.647
 1739TIP3    H213345   1.569   3.848  11.778
 1740TIP3   OH213346   0.293   3.032  11.721
 1740TIP3    H113347   0.388   3.038  11.747
 1740TIP3    H213348   0.275   2.943  11.754
 1741TIP3   OH213349   0.869   2.581  10.974
 1741TIP3    H113350   0.961   2.561  10.950
 1741TIP3    H213351   0.851   2.515  11.044
 1742TIP3   OH213352   0.396   2.168  10.628
 1742TIP3    H113353   0.356   2.085  10.663
 1742TIP3    H213354   0.464   2.132  10.569
 1743TIP3   OH213355   0.823   2.384  11.215
 1743TIP3    H113356   0.737   2.431  11.227
 1743TIP3    H213357   0.881   2.437  11.273
 1744TIP3   OH213358   0.893   3.013  10.421
 1744TIP3    H113359   0.821   2.963  10.377
 1744TIP3    H213360   0.850   3.038  10.506
 1745TIP3   OH213361   1.623   2.962  11.259
 1745TIP3    H113362   1.674   3.016  11.195
 1745TIP3    H213363   1.554   2.927  11.200
 1746TIP3   OH213364   1.236   2.283  10.257
 1746TIP3    H113365   1.162   2.301  10.195
 1746TIP3    H213366   1.259   2.376  10.284
 1747TIP3   OH213367   1.009   3.079  11.475
 1747TIP3    H113368   1.012   3.023  11.553
 1747TIP3    H213369   0.971   3.163  11.509
 1748TIP3   OH213370   1.288   2.513  10.362
 1748TIP3    H113371   1.370   2.486  10.411
 1748TIP3    H213372   1.318   2.595  10.318
 1749TIP3   OH213373   0.388   2.951  10.908
 1749TIP3    H113374   0.452   2.917  10.844
 1749TIP3    H213375   0.405   2.894  10.985
 1750TIP3   OH213376   1.082   3.157  10.321
 1750TIP3    H113377   1.040   3.246  10.324
 1750TIP3    H213378   1.006   3.100  10.346
 1751TIP3   OH213379   0.109   2.769  11.486
 1751TIP3    H113380   0.138   2.744  11.576
 1751TIP3    H213381   0.017   2.737  11.488
 1752TIP3   OH213382   0.797   2.771  11.674
 1752TIP3    H113383   0.752   2.706  11.616
 1752TIP3    H213384   0.887   2.731  11.679
 1753TIP3   OH213385   1.285   3.264  11.537
 1753TIP3    H113386   1.202   3.262  11.488
 1753TIP3    H213387   1.259   3.319  11.614
 1754TIP3   OH213388   1.788   2.479  10.368
 1754TIP3    H113389   1.759   2.459  10.276
 1754TIP3    H213390   1.781   2.576  10.371
 1755TIP3   OH213391   1.843   3.047  11.581
 1755TIP3    H113392   1.764   3.081  11.531
 1755TIP3    H213393   1.905   3.035  11.505
 1756TIP3   OH213394   1.623   3.345  10.387
 1756TIP3    H113395   1.575   3.271  10.427
 1756TIP3    H213396   1.670   3.308  10.311
 1757TIP3   OH213397   1.394   2.855  11.073
 1757TIP3    H113398   1.301   2.830  11.055
 1757TIP3    H213399   1.443   2.790  11.017
 1758TIP3   OH213400   0.598   3.275  10.719
 1758TIP3    H113401   0.630   3.361  10.682
 1758TIP3    H213402   0.506   3.275  10.689
 1759TIP3   OH213403   0.209   2.799  10.096
 1759TIP3    H113404   0.250   2.853  10.167
 1759TIP3    H213405   0.121   2.784  10.134
 1760TIP3   OH213406   0.775   3.078  10.652
 1760TIP3    H113407   0.715   3.155  10.660
 1760TIP3    H213408   0.719   3.004  10.683
 1761TIP3   OH213409   0.815   3.494  11.323
 1761TIP3    H113410   0.884   3.556  11.291
 1761TIP3    H213411   0.870   3.431  11.374
 1762TIP3   OH213412   0.646   3.529  10.604
 1762TIP3    H113413   0.550   3.532  10.628
 1762TIP3    H213414   0.669   3.621  10.629
 1763TIP3   OH213415   1.157   3.078  11.255
 1763TIP3    H113416   1.110   3.056  11.340
 1763TIP3    H213417   1.214   3.000  11.245
 1764TIP3   OH213418   1.427   3.177  10.184
 1764TIP3    H113419   1.431   3.134  10.273
 1764TIP3    H213420   1.337   3.152  10.158
 1765TIP3   OH213421   1.500   3.526  11.465
 1765TIP3    H113422   1.413   3.481  11.469
 1765TIP3    H213423   1.482   3.602  11.406
 1766TIP3   OH213424   1.826   3.596  10.203
 1766TIP3    H113425   1.875   3.662  10.153
 1766TIP3    H213426   1.762   3.654  10.250
 1767TIP3   OH213427   0.275   2.236  11.432
 1767TIP3    H113428   0.224   2.284  11.500
 1767TIP3    H213429   0.245   2.145  11.452
 1768TIP3   OH213430   1.492   3.034  10.420
 1768TIP3    H113431   1.469   2.941  10.440
 1768TIP3    H213432   1.589   3.023  10.405
 1769TIP3   OH213433   0.220   3.438  11.281
 1769TIP3    H113434   0.278   3.362  11.294
 1769TIP3    H213435   0.226   3.477  11.370
 1770TIP3   OH213436   0.813   3.317  10.039
 1770TIP3    H113437   0.801   3.262   9.960
 1770TIP3    H213438   0.754   3.272  10.103
 1771TIP3   OH213439   0.665   3.220  10.255
 1771TIP3    H113440   0.735   3.177  10.306
 1771TIP3    H213441   0.672   3.310  10.294
 1772TIP3   OH213442   0.357   2.922  10.310
 1772TIP3    H113443   0.278   2.970  10.345
 1772TIP3    H213444   0.402   2.997  10.267
 1773TIP3   OH213445   1.131   2.235  11.352
 1773TIP3    H113446   1.213   2.249  11.405
 1773TIP3    H213447   1.102   2.146  11.381
 1774TIP3   OH213448   1.226   2.114  10.460
 1774TIP3    H113449   1.235   2.176  10.384
 1774TIP3    H213450   1.256   2.172  10.534
 1775TIP3   OH213451   0.951   3.401  10.314
 1775TIP3    H113452   0.865   3.432  10.348
 1775TIP3    H213453   1.001   3.483  10.312
 1776TIP3   OH213454   0.926   2.380  10.581
 1776TIP3    H113455   0.969   2.466  10.593
 1776TIP3    H213456   0.897   2.354  10.671
 1777TIP3   OH213457   1.037   2.492  11.411
 1777TIP3    H113458   1.060   2.512  11.503
 1777TIP3    H213459   1.068   2.400  11.400
 1778TIP3   OH213460   0.984   2.048  10.588
 1778TIP3    H113461   0.955   2.119  10.648
 1778TIP3    H213462   1.064   2.090  10.550
 1779TIP3   OH213463   0.695   3.466  10.341
 1779TIP3    H113464   0.709   3.531  10.271
 1779TIP3    H213465   0.669   3.525  10.415
 1780TIP3   OH213466   0.535   2.169  10.304
 1780TIP3    H113467   0.537   2.247  10.361
 1780TIP3    H213468   0.626   2.136  10.317
 1781TIP3   OH213469   1.557   2.248  11.569
 1781TIP3    H113470   1.467   2.262  11.534
 1781TIP3    H213471   1.607   2.252  11.486
 1782TIP3   OH213472   1.482   2.642  10.914
 1782TIP3    H113473   1.402   2.587  10.915
 1782TIP3    H213474   1.544   2.589  10.970
 1783TIP3   OH213475   0.406   3.200  10.163
 1783TIP3    H113476   0.476   3.225  10.226
 1783TIP3    H213477   0.463   3.146  10.102
 1784TIP3   OH213478   0.228   2.515  10.144
 1784TIP3    H113479   0.262   2.606  10.143
 1784TIP3    H213480   0.162   2.516  10.072
 1785TIP3   OH213481   1.559   3.585  11.090
 1785TIP3    H113482   1.561   3.656  11.022
 1785TIP3    H213483   1.655   3.565  11.093
 1786TIP3   OH213484   0.285   1.988  11.016
 1786TIP3    H113485   0.283   1.971  10.920
 1786TIP3    H213486   0.297   1.896  11.051
 1787TIP3   OH213487   0.238   3.342  10.611
 1787TIP3    H113488   0.147   3.320  10.638
 1787TIP3    H213489   0.222   3.387  10.526
 1788TIP3   OH213490   0.160   3.618  11.719
 1788TIP3    H113491   0.201   3.638  11.805
 1788TIP3    H213492   0.141   3.524  11.732
 1789TIP3   OH213493   0.550   3.540  11.902
 1789TIP3    H113494   0.640   3.539  11.939
 1789TIP3    H213495   0.557   3.475  11.830
 1790TIP3   OH213496   1.024   3.535  10.029
 1790TIP3    H113497   0.978   3.452  10.057
 1790TIP3    H213498   1.105   3.498   9.989
 1791TIP3   OH213499   1.221   3.415  11.748
 1791TIP3    H113500   1.181   3.333  11.782
 1791TIP3    H213501   1.284   3.435  11.819
 1792TIP3   OH213502   1.471   3.418  10.032
 1792TIP3    H113503   1.486   3.335  10.081
 1792TIP3    H213504   1.552   3.426   9.979
 1793TIP3   OH213505   0.030   2.998  11.847
 1793TIP3    H113506   0.058   2.911  11.811
 1793TIP3    H213507   0.089   3.058  11.801
 1794TIP3   OH213508   0.582   3.024  10.016
 1794TIP3    H113509   0.604   2.946  10.068
 1794TIP3    H213510   0.665   3.035   9.965
 1795TIP3   OH213511   0.811   3.037  11.743
 1795TIP3    H113512   0.786   3.083  11.660
 1795TIP3    H213513   0.811   2.942  11.715
 1796TIP3   OH213514   1.102   3.195   9.994
 1796TIP3    H113515   1.061   3.188  10.082
 1796TIP3    H213516   1.114   3.101   9.973
 1797TIP3   OH213517   1.365   2.997  11.516
 1797TIP3    H113518   1.449   3.046  11.520
 1797TIP3    H213519   1.306   3.074  11.531
 1798TIP3   OH213520   0.203   2.726  11.759
 1798TIP3    H113521   0.207   2.632  11.731
 1798TIP3    H213522   0.198   2.716  11.855
 1799TIP3   OH213523   0.703   2.854  10.289
 1799TIP3    H113524   0.630   2.801  10.323
 1799TIP3    H213525   0.741   2.794  10.222
 1800TIP3   OH213526   0.635   2.612  11.526
 1800TIP3    H113527   0.550   2.662  11.521
 1800TIP3    H213528   0.681   2.651  11.449
 1801TIP3   OH213529   0.800   2.692  10.097
 1801TIP3    H113530   0.782   2.716  10.004
 1801TIP3    H213531   0.898   2.697  10.103
 1802TIP3   OH213532   1.128   2.846  11.886
 1802TIP3    H113533   1.220   2.864  11.863
 1802TIP3    H213534   1.138   2.789  11.964
 1803TIP3   OH213535   1.716   2.886  10.010
 1803TIP3    H113536   1.695   2.854   9.919
 1803TIP3    H213537   1.702   2.984  10.002
 1804TIP3   OH213538   0.642   2.348  11.605
 1804TIP3    H113539   0.660   2.284  11.534
 1804TIP3    H213540   0.637   2.432  11.555
 1805TIP3   OH213541   0.737   2.197  11.391
 1805TIP3    H113542   0.800   2.249  11.335
 1805TIP3    H213543   0.660   2.203  11.332
 1806TIP3   OH213544   0.836   2.757  11.364
 1806TIP3    H113545   0.924   2.793  11.349
 1806TIP3    H213546   0.777   2.832  11.339
 1807TIP3   OH213547   1.216   2.543  11.878
 1807TIP3    H113548   1.210   2.448  11.900
 1807TIP3    H213549   1.305   2.567  11.905
 1808TIP3   OH213550   1.434   2.820  11.719
 1808TIP3    H113551   1.404   2.877  11.645
 1808TIP3    H213552   1.526   2.805  11.692
 1809TIP3   OH213553   0.461   2.519  11.842
 1809TIP3    H113554   0.411   2.438  11.857
 1809TIP3    H213555   0.508   2.496  11.760
 1810TIP3   OH213556   0.785   1.934  11.344
 1810TIP3    H113557   0.750   2.021  11.373
 1810TIP3    H213558   0.703   1.882  11.334
 1811TIP3   OH213559   0.862   2.318  11.772
 1811TIP3    H113560   0.814   2.299  11.855
 1811TIP3    H213561   0.787   2.332  11.710
 1812TIP3   OH213562   1.137   2.280  11.685
 1812TIP3    H113563   1.042   2.264  11.699
 1812TIP3    H213564   1.172   2.223  11.757
 1813TIP3   OH213565   1.250   2.140  11.879
 1813TIP3    H113566   1.272   2.046  11.899
 1813TIP3    H213567   1.258   2.183  11.967
 1814TIP3   OH213568   0.299   2.260  11.837
 1814TIP3    H113569   0.347   2.190  11.789
 1814TIP3    H213570   0.261   2.212  11.913
 1815TIP3   OH213571   0.755   1.881  11.712
 1815TIP3    H113572   0.814   1.805  11.723
 1815TIP3    H213573   0.764   1.893  11.616
 1816TIP3   OH213574   0.767   2.005  11.953
 1816TIP3    H113575   0.772   1.966  11.863
 1816TIP3    H213576   0.721   2.088  11.932
 1817TIP3   OH213577   0.750   3.723  10.230
 1817TIP3    H113578   0.824   3.782  10.251
 1817TIP3    H213579   0.742   3.736  10.134
 1818TIP3   OH213580   0.070   3.263  10.096
 1818TIP3    H113581   0.163   3.258  10.121
 1818TIP3    H213582   0.063   3.184  10.037
 1819TIP3   OH213583  -0.013   3.833  10.752
 1819TIP3    H113584  -0.018   3.788  10.667
 1819TIP3    H213585   0.013   3.759  10.812
 1820TIP3   OH213586   0.081   3.579  10.861
 1820TIP3    H113587   0.013   3.532  10.914
 1820TIP3    H213588   0.156   3.576  10.923
 1821TIP3   OH213589   1.823   3.649  11.095
 1821TIP3    H113590   1.839   3.623  11.188
 1821TIP3    H213591   1.801   3.743  11.104
 1822TIP3   OH213592   1.787   3.586  11.369
 1822TIP3    H113593   1.758   3.498  11.336
 1822TIP3    H213594   1.832   3.558  11.450
 1823TIP3   OH213595   1.648   3.129  11.888
 1823TIP3    H113596   1.558   3.157  11.908
 1823TIP3    H213597   1.701   3.203  11.921
 1824TIP3   OH213598   1.769   2.972  10.407
 1824TIP3    H113599   1.855   3.014  10.428
 1824TIP3    H213600   1.761   2.904  10.477
 1825TIP3   OH213601   1.799   2.771  10.604
 1825TIP3    H113602   1.732   2.710  10.643
 1825TIP3    H213603   1.852   2.789  10.683
 1826TIP3   OH213604   1.771   3.066  11.070
 1826TIP3    H113605   1.833   2.992  11.053
 1826TIP3    H213606   1.830   3.143  11.060
 1827TIP3   OH213607   1.655   3.347  11.312
 1827TIP3    H113608   1.590   3.412  11.348
 1827TIP3    H213609   1.610   3.313  11.232
 1828TIP3   OH213610   1.896   2.805  10.218
 1828TIP3    H113611   1.824   2.803  10.151
 1828TIP3    H213612   1.855   2.860  10.288
 1829TIP3   OH213613   1.688   2.493  10.076
 1829TIP3    H113614   1.691   2.571  10.020
 1829TIP3    H213615   1.637   2.432  10.019
 1830TIP3   OH213616   1.620   2.598  10.690
 1830TIP3    H113617   1.568   2.526  10.649
 1830TIP3    H213618   1.571   2.619  10.774
 1831TIP3   OH213619   0.129   2.883  11.072
 1831TIP3    H113620   0.118   2.845  10.984
 1831TIP3    H213621   0.200   2.830  11.114
 1832TIP3   OH213622   1.683   2.821  11.603
 1832TIP3    H113623   1.751   2.756  11.629
 1832TIP3    H213624   1.735   2.903  11.587
 1833TIP3   OH213625   1.798   2.562  11.664
 1833TIP3    H113626   1.712   2.538  11.704
 1833TIP3    H213627   1.847   2.477  11.665
 1834TIP3   OH213628   1.609   2.240   9.985
 1834TIP3    H113629   1.650   2.202  10.065
 1834TIP3    H213630   1.515   2.218   9.997
 1835TIP3   OH213631   1.515   2.437  10.489
 1835TIP3    H113632   1.536   2.349  10.527
 1835TIP3    H213633   1.601   2.454  10.448
 1836TIP3   OH213634   1.633   2.482  11.080
 1836TIP3    H113635   1.731   2.475  11.089
 1836TIP3    H213636   1.610   2.486  11.175
 1837TIP3   OH213637   1.632   2.544  11.357
 1837TIP3    H113638   1.559   2.555  11.421
 1837TIP3    H213639   1.672   2.632  11.357
 1838TIP3   OH213640   0.135   2.430  11.680
 1838TIP3    H113641   0.177   2.378  11.751
 1838TIP3    H213642   0.042   2.399  11.677
 1839TIP3   OH213643   1.829   1.930  11.852
 1839TIP3    H113644   1.896   1.869  11.817
 1839TIP3    H213645   1.837   2.001  11.785
 1840TIP3   OH213646   1.633   2.198  10.538
 1840TIP3    H113647   1.647   2.142  10.617
 1840TIP3    H213648   1.589   2.136  10.479
 1841TIP3   OH213649   0.110   2.188  11.084
 1841TIP3    H113650   0.168   2.108  11.076
 1841TIP3    H213651   0.169   2.263  11.082
 1842TIP3   OH213652   0.031   2.512  11.106
 1842TIP3    H113653   0.114   2.528  11.058
 1842TIP3    H213654  -0.006   2.602  11.117
 1843TIP3   OH213655   1.813   2.117  11.674
 1843TIP3    H113656   1.744   2.159  11.729
 1843TIP3    H213657   1.762   2.087  11.597
 1844TIP3   OH213658   1.769   2.104  10.204
 1844TIP3    H113659   1.799   2.069  10.116
 1844TIP3    H213660   1.853   2.142  10.237
 1845TIP3   OH213661   0.016   2.115  10.464
 1845TIP3    H113662   0.003   2.174  10.539
 1845TIP3    H213663   0.048   2.179  10.396
 1846TIP3   OH213664   1.533   3.651  10.692
 1846TIP3    H113665   1.614   3.641  10.637
 1846TIP3    H213666   1.561   3.700  10.772
 1847TIP3   OH213667   0.057   1.970  11.370
 1847TIP3    H113668  -0.033   1.963  11.404
 1847TIP3    H213669   0.049   2.027  11.292
 1848TIP3   OH213670   0.232   3.325  11.793
 1848TIP3    H113671   0.211   3.239  11.752
 1848TIP3    H213672   0.252   3.298  11.885
 1849TIP3   OH213673   0.552   3.487  11.442
 1849TIP3    H113674   0.532   3.559  11.379
 1849TIP3    H213675   0.643   3.468  11.412
 1850TIP3   OH213676   0.958   3.583  11.625
 1850TIP3    H113677   0.978   3.546  11.714
 1850TIP3    H213678   1.046   3.620  11.601
 1851TIP3   OH213679   1.185   3.729  11.568
 1851TIP3    H113680   1.260   3.698  11.516
 1851TIP3    H213681   1.217   3.720  11.659
 1852TIP3   OH213682   1.663   1.958  11.491
 1852TIP3    H113683   1.570   1.979  11.472
 1852TIP3    H213684   1.668   1.864  11.467
 1853TIP3   OH213685   0.299   3.782  11.403
 1853TIP3    H113686   0.208   3.817  11.383
 1853TIP3    H213687   0.287   3.741  11.489
 1854TIP3   OH213688   0.519   3.689  11.255
 1854TIP3    H113689   0.435   3.719  11.295
 1854TIP3    H213690   0.529   3.753  11.181
 1855TIP3   OH213691   0.981   3.653  11.196
 1855TIP3    H113692   0.970   3.701  11.113
 1855TIP3    H213693   0.993   3.729  11.257
 1856TIP3   OH213694   1.207   3.553  11.335
 1856TIP3    H113695   1.143   3.553  11.261
 1856TIP3    H213696   1.267   3.623  11.300
 1857TIP3   OH213697   1.425   3.727  11.276
 1857TIP3    H113698   1.433   3.815  11.236
 1857TIP3    H213699   1.467   3.675  11.203
 1858TIP3   OH213700   0.270   3.598  11.069
 1858TIP3    H113701   0.232   3.551  11.146
 1858TIP3    H213702   0.361   3.563  11.066
 1859TIP3   OH213703   0.448   3.443  10.930
 1859TIP3    H113704   0.435   3.351  10.960
 1859TIP3    H213705   0.529   3.467  10.980
 1860TIP3   OH213706   0.676   3.487  11.063
 1860TIP3    H113707   0.730   3.409  11.045
 1860TIP3    H213708   0.699   3.503  11.157
 1861TIP3   OH213709   0.958   2.092  10.968
 1861TIP3    H113710   0.887   2.025  10.984
 1861TIP3    H213711   1.034   2.035  10.952
 1862TIP3   OH213712   1.529   1.911  10.928
 1862TIP3    H113713   1.595   1.965  10.880
 1862TIP3    H213714   1.445   1.954  10.900
 1863TIP3   OH213715   1.732   2.000  10.766
 1863TIP3    H113716   1.795   1.940  10.720
 1863TIP3    H213717   1.792   2.076  10.784
 1864TIP3   OH213718   0.305   1.937  10.730
 1864TIP3    H113719   0.214   1.923  10.698
 1864TIP3    H213720   0.346   1.849  10.716
 1865TIP3   OH213721   0.169   1.923  10.317
 1865TIP3    H113722   0.200   1.978  10.243
 1865TIP3    H213723   0.123   1.990  10.371
 1866TIP3   OH213724   0.708   1.895  10.691
 1866TIP3    H113725   0.802   1.893  10.667
 1866TIP3    H213726   0.707   1.949  10.772
 1867TIP3   OH213727   1.280   1.976  10.811
 1867TIP3    H113728   1.261   1.966  10.717
 1867TIP3    H213729   1.234   1.898  10.851
 1868TIP3   OH213730   1.440   1.968  10.465
 1868TIP3    H113731   1.354   2.013  10.455
 1868TIP3    H213732   1.412   1.882  10.501
 1869TIP3   OH213733   0.175   3.505  10.374
 1869TIP3    H113734   0.082   3.495  10.344
 1869TIP3    H213735   0.188   3.602  10.362
 1870TIP3   OH213736   0.280   2.110  10.156
 1870TIP3    H113737   0.361   2.077  10.112
 1870TIP3    H213738   0.320   2.153  10.233
 1871TIP3   OH213739   0.839   2.167  10.384
 1871TIP3    H113740   0.880   2.112  10.453
 1871TIP3    H213741   0.840   2.253  10.428
 1872TIP3   OH213742   1.090   3.729  10.253
 1872TIP3    H113743   1.170   3.673  10.245
 1872TIP3    H213744   1.057   3.720  10.161
 1873TIP3   OH213745   1.715   3.561  10.511
 1873TIP3    H113746   1.680   3.480  10.467
 1873TIP3    H213747   1.703   3.627  10.440
 1874TIP3   OH213748   0.273   1.999  11.613
 1874TIP3    H113749   0.193   1.954  11.646
 1874TIP3    H213750   0.336   1.966  11.679
 1875TIP3   OH213751   0.434   1.929  11.835
 1875TIP3    H113752   0.504   1.892  11.779
 1875TIP3    H213753   0.440   1.866  11.909
 1876TIP3   OH213754   0.310   3.606  10.095
 1876TIP3    H113755   0.263   3.579  10.176
 1876TIP3    H213756   0.391   3.553  10.104
 1877TIP3   OH213757   1.322   1.880  11.928
 1877TIP3    H113758   1.329   1.840  12.016
 1877TIP3    H213759   1.397   1.842  11.879
 1878TIP3   OH213760   1.691   3.470  11.664
 1878TIP3    H113761   1.630   3.480  11.588
 1878TIP3    H213762   1.661   3.543  11.720
 1879TIP3   OH213763   3.108   2.884  10.703
 1879TIP3    H113764   3.087   2.979  10.716
 1879TIP3    H213765   3.030   2.854  10.655
 1880TIP3   OH213766   2.972   2.750  11.022
 1880TIP3    H113767   2.965   2.701  11.107
 1880TIP3    H213768   2.898   2.717  10.970
 1881TIP3   OH213769   2.181   2.729  11.202
 1881TIP3    H113770   2.174   2.639  11.241
 1881TIP3    H213771   2.273   2.722  11.166
 1882TIP3   OH213772   3.291   3.060  10.909
 1882TIP3    H113773   3.279   2.984  10.968
 1882TIP3    H213774   3.335   3.124  10.968
 1883TIP3   OH213775   2.312   3.245  10.965
 1883TIP3    H113776   2.278   3.157  10.945
 1883TIP3    H213777   2.404   3.219  10.990
 1884TIP3   OH213778   1.980   2.511  10.592
 1884TIP3    H113779   1.947   2.600  10.613
 1884TIP3    H213780   1.911   2.483  10.529
 1885TIP3   OH213781   1.978   2.767  10.826
 1885TIP3    H113782   2.012   2.676  10.841
 1885TIP3    H213783   2.060   2.818  10.813
 1886TIP3   OH213784   3.005   3.571  10.856
 1886TIP3    H113785   3.080   3.527  10.811
 1886TIP3    H213786   3.014   3.530  10.943
 1887TIP3   OH213787   2.786   3.065  11.131
 1887TIP3    H113788   2.813   2.994  11.069
 1887TIP3    H213789   2.871   3.081  11.178
 1888TIP3   OH213790   3.634   2.203  11.084
 1888TIP3    H113791   3.627   2.236  11.175
 1888TIP3    H213792   3.730   2.213  11.069
 1889TIP3   OH213793   3.137   2.512  11.151
 1889TIP3    H113794   3.136   2.426  11.195
 1889TIP3    H213795   3.090   2.492  11.067
 1890TIP3   OH213796   2.454   2.233  10.832
 1890TIP3    H113797   2.469   2.323  10.798
 1890TIP3    H213798   2.388   2.199  10.768
 1891TIP3   OH213799   3.158   2.290  10.686
 1891TIP3    H113800   3.215   2.250  10.757
 1891TIP3    H213801   3.213   2.363  10.656
 1892TIP3   OH213802   2.096   2.543  10.913
 1892TIP3    H113803   2.157   2.511  10.981
 1892TIP3    H213804   2.120   2.484  10.838
 1893TIP3   OH213805   2.564   2.691  10.873
 1893TIP3    H113806   2.641   2.637  10.900
 1893TIP3    H213807   2.510   2.619  10.832
 1894TIP3   OH213808   3.653   2.304  11.375
 1894TIP3    H113809   3.609   2.390  11.352
 1894TIP3    H213810   3.727   2.337  11.430
 1895TIP3   OH213811   2.332   2.167  11.263
 1895TIP3    H113812   2.294   2.223  11.192
 1895TIP3    H213813   2.269   2.189  11.336
 1896TIP3   OH213814   3.012   3.119  10.603
 1896TIP3    H113815   3.015   3.117  10.507
 1896TIP3    H213816   2.976   3.209  10.615
 1897TIP3   OH213817   2.539   2.931  11.255
 1897TIP3    H113818   2.480   2.999  11.295
 1897TIP3    H213819   2.597   2.989  11.204
 1898TIP3   OH213820   3.381   2.219  10.859
 1898TIP3    H113821   3.326   2.204  10.939
 1898TIP3    H213822   3.468   2.226  10.900
 1899TIP3   OH213823   2.293   2.367  11.051
 1899TIP3    H113824   2.359   2.426  11.094
 1899TIP3    H213825   2.343   2.335  10.973
 1900TIP3   OH213826   2.427   3.159  11.329
 1900TIP3    H113827   2.404   3.229  11.267
 1900TIP3    H213828   2.341   3.150  11.377
 1901TIP3   OH213829   2.024   3.068  10.399
 1901TIP3    H113830   2.012   3.116  10.314
 1901TIP3    H213831   2.025   3.144  10.462
 1902TIP3   OH213832   3.362   3.263  11.092
 1902TIP3    H113833   3.265   3.256  11.097
 1902TIP3    H213834   3.369   3.358  11.067
 1903TIP3   OH213835   3.368   2.126  11.220
 1903TIP3    H113836   3.288   2.152  11.170
 1903TIP3    H213837   3.437   2.155  11.159
 1904TIP3   OH213838   2.675   1.912  10.978
 1904TIP3    H113839   2.648   1.819  10.980
 1904TIP3    H213840   2.594   1.955  11.016
 1905TIP3   OH213841   3.233   3.456  10.741
 1905TIP3    H113842   3.254   3.370  10.697
 1905TIP3    H213843   3.318   3.506  10.730
 1906TIP3   OH213844   3.304   3.230  10.596
 1906TIP3    H113845   3.305   3.168  10.520
 1906TIP3    H213846   3.300   3.166  10.669
 1907TIP3   OH213847   3.467   3.113  11.483
 1907TIP3    H113848   3.463   3.043  11.414
 1907TIP3    H213849   3.478   3.190  11.423
 1908TIP3   OH213850   2.928   2.796  10.427
 1908TIP3    H113851   2.885   2.885  10.429
 1908TIP3    H213852   3.019   2.814  10.393
 1909TIP3   OH213853   2.960   2.708  10.113
 1909TIP3    H113854   3.018   2.754  10.177
 1909TIP3    H213855   2.971   2.617  10.145
 1910TIP3   OH213856   3.664   2.770  11.278
 1910TIP3    H113857   3.587   2.829  11.287
 1910TIP3    H213858   3.699   2.804  11.193
 1911TIP3   OH213859   3.335   2.835  10.561
 1911TIP3    H113860   3.255   2.858  10.616
 1911TIP3    H213861   3.386   2.786  10.629
 1912TIP3   OH213862   3.262   2.614  11.507
 1912TIP3    H113863   3.269   2.693  11.566
 1912TIP3    H213864   3.201   2.651  11.439
 1913TIP3   OH213865   2.452   2.860  10.713
 1913TIP3    H113866   2.425   2.817  10.629
 1913TIP3    H213867   2.504   2.790  10.759
 1914TIP3   OH213868   2.578   3.176  11.004
 1914TIP3    H113869   2.607   3.191  10.913
 1914TIP3    H213870   2.660   3.146  11.049
 1915TIP3   OH213871   2.442   2.737  11.109
 1915TIP3    H113872   2.492   2.737  11.023
 1915TIP3    H213873   2.485   2.809  11.160
 1916TIP3   OH213874   3.115   3.323  11.158
 1916TIP3    H113875   3.146   3.379  11.232
 1916TIP3    H213876   3.078   3.246  11.208
 1917TIP3   OH213877   2.585   3.193  11.553
 1917TIP3    H113878   2.510   3.234  11.603
 1917TIP3    H213879   2.540   3.176  11.467
 1918TIP3   OH213880   3.185   2.782  10.340
 1918TIP3    H113881   3.240   2.786  10.422
 1918TIP3    H213882   3.244   2.822  10.271
 1919TIP3   OH213883   2.271   2.818  11.483
 1919TIP3    H113884   2.210   2.802  11.556
 1919TIP3    H213885   2.222   2.782  11.408
 1920TIP3   OH213886   2.909   3.406  10.600
 1920TIP3    H113887   2.899   3.420  10.695
 1920TIP3    H213888   2.896   3.497  10.566
 1921TIP3   OH213889   2.390   3.337  11.667
 1921TIP3    H113890   2.388   3.379  11.578
 1921TIP3    H213891   2.296   3.346  11.694
 1922TIP3   OH213892   3.572   1.916  10.335
 1922TIP3    H113893   3.484   1.931  10.378
 1922TIP3    H213894   3.584   2.000  10.284
 1923TIP3   OH213895   2.322   2.747  10.493
 1923TIP3    H113896   2.302   2.835  10.456
 1923TIP3    H213897   2.264   2.690  10.442
 1924TIP3   OH213898   3.661   3.370  10.156
 1924TIP3    H113899   3.686   3.463  10.171
 1924TIP3    H213900   3.748   3.326  10.174
 1925TIP3   OH213901   1.987   3.027  11.347
 1925TIP3    H113902   1.977   3.006  11.252
 1925TIP3    H213903   2.021   2.940  11.377
 1926TIP3   OH213904   1.989   3.283  11.053
 1926TIP3    H113905   2.070   3.237  11.027
 1926TIP3    H213906   2.019   3.344  11.122
 1927TIP3   OH213907   3.789   3.310  11.627
 1927TIP3    H113908   3.760   3.216  11.622
 1927TIP3    H213909   3.707   3.356  11.653
 1928TIP3   OH213910   2.843   3.293  11.530
 1928TIP3    H113911   2.856   3.372  11.586
 1928TIP3    H213912   2.746   3.279  11.527
 1929TIP3   OH213913   2.917   3.680  10.507
 1929TIP3    H113914   2.910   3.711  10.414
 1929TIP3    H213915   2.909   3.764  10.557
 1930TIP3   OH213916   2.254   3.541  10.693
 1930TIP3    H113917   2.308   3.547  10.776
 1930TIP3    H213918   2.173   3.502  10.729
 1931TIP3   OH213919   3.205   3.604  10.179
 1931TIP3    H113920   3.254   3.534  10.128
 1931TIP3    H213921   3.233   3.580  10.269
 1932TIP3   OH213922   3.165   3.574  10.463
 1932TIP3    H113923   3.074   3.607  10.480
 1932TIP3    H213924   3.168   3.496  10.521
 1933TIP3   OH213925   3.395   2.462  11.717
 1933TIP3    H113926   3.357   2.510  11.640
 1933TIP3    H213927   3.417   2.376  11.677
 1934TIP3   OH213928   2.203   3.166  11.474
 1934TIP3    H113929   2.206   3.136  11.567
 1934TIP3    H213930   2.110   3.145  11.451
 1935TIP3   OH213931   2.454   2.000  11.089
 1935TIP3    H113932   2.369   2.012  11.042
 1935TIP3    H213933   2.435   2.052  11.170
 1936TIP3   OH213934   2.920   1.979  11.391
 1936TIP3    H113935   2.960   1.936  11.470
 1936TIP3    H213936   2.824   1.964  11.404
 1937TIP3   OH213937   3.222   2.342  11.486
 1937TIP3    H113938   3.170   2.308  11.563
 1937TIP3    H213939   3.226   2.439  11.504
 1938TIP3   OH213940   3.342   2.878  10.149
 1938TIP3    H113941   3.321   2.872  10.054
 1938TIP3    H213942   3.434   2.910  10.146
 1939TIP3   OH213943   2.895   2.232  10.149
 1939TIP3    H113944   2.857   2.213  10.237
 1939TIP3    H213945   2.836   2.174  10.098
 1940TIP3   OH213946   2.477   2.489  11.202
 1940TIP3    H113947   2.415   2.498  11.277
 1940TIP3    H213948   2.478   2.584  11.175
 1941TIP3   OH213949   2.446   2.486  10.738
 1941TIP3    H113950   2.354   2.468  10.710
 1941TIP3    H213951   2.497   2.479  10.655
 1942TIP3   OH213952   3.019   2.596  10.569
 1942TIP3    H113953   2.977   2.666  10.513
 1942TIP3    H213954   3.087   2.565  10.506
 1943TIP3   OH213955   2.915   2.601  11.701
 1943TIP3    H113956   2.875   2.516  11.727
 1943TIP3    H213957   2.976   2.612  11.778
 1944TIP3   OH213958   3.013   2.522  10.858
 1944TIP3    H113959   3.059   2.602  10.828
 1944TIP3    H213960   3.061   2.454  10.808
 1945TIP3   OH213961   2.213   2.490  11.317
 1945TIP3    H113962   2.255   2.530  11.396
 1945TIP3    H213963   2.172   2.411  11.356
 1946TIP3   OH213964   2.530   2.291  10.075
 1946TIP3    H113965   2.476   2.247  10.144
 1946TIP3    H213966   2.462   2.332  10.018
 1947TIP3   OH213967   1.905   2.209  10.791
 1947TIP3    H113968   1.983   2.216  10.847
 1947TIP3    H213969   1.930   2.263  10.715
 1948TIP3   OH213970   1.978   2.292  10.310
 1948TIP3    H113971   2.044   2.333  10.251
 1948TIP3    H213972   1.918   2.368  10.321
 1949TIP3   OH213973   3.024   2.707  11.315
 1949TIP3    H113974   3.076   2.644  11.261
 1949TIP3    H213975   2.968   2.644  11.366
 1950TIP3   OH213976   2.741   2.246  10.792
 1950TIP3    H113977   2.650   2.213  10.805
 1950TIP3    H213978   2.794   2.190  10.852
 1951TIP3   OH213979   2.177   2.379  10.715
 1951TIP3    H113980   2.118   2.419  10.648
 1951TIP3    H213981   2.205   2.296  10.669
 1952TIP3   OH213982   2.561   2.456  10.484
 1952TIP3    H113983   2.659   2.456  10.482
 1952TIP3    H213984   2.535   2.532  10.429
 1953TIP3   OH213985   3.177   2.199  11.048
 1953TIP3    H113986   3.119   2.198  11.128
 1953TIP3    H213987   3.131   2.135  10.992
 1954TIP3   OH213988   2.421   2.569  10.189
 1954TIP3    H113989   2.384   2.520  10.115
 1954TIP3    H213990   2.511   2.589  10.156
 1955TIP3   OH213991   3.452   3.748  11.743
 1955TIP3    H113992   3.477   3.802  11.666
 1955TIP3    H213993   3.521   3.773  11.806
 1956TIP3   OH213994   2.178   3.025  11.725
 1956TIP3    H113995   2.267   3.023  11.768
 1956TIP3    H213996   2.147   2.935  11.747
 1957TIP3   OH213997   2.750   2.515  10.933
 1957TIP3    H113998   2.845   2.522  10.908
 1957TIP3    H213999   2.742   2.419  10.946
 1958TIP3   OH214000   2.286   2.161  10.626
 1958TIP3    H114001   2.243   2.080  10.664
 1958TIP3    H214002   2.350   2.121  10.568
 1959TIP3   OH214003   2.689   2.327  11.216
 1959TIP3    H114004   2.619   2.389  11.188
 1959TIP3    H214005   2.753   2.388  11.257
 1960TIP3   OH214006   2.763   3.016  10.410
 1960TIP3    H114007   2.692   2.963  10.367
 1960TIP3    H214008   2.720   3.038  10.496
 1961TIP3   OH214009   3.477   2.964  11.265
 1961TIP3    H114010   3.524   3.022  11.200
 1961TIP3    H214011   3.406   2.928  11.208
 1962TIP3   OH214012   3.123   2.292  10.284
 1962TIP3    H114013   3.046   2.309  10.227
 1962TIP3    H214014   3.169   2.379  10.282
 1963TIP3   OH214015   2.873   3.020  11.505
 1963TIP3    H114016   2.854   2.986  11.594
 1963TIP3    H214017   2.857   3.116  11.517
 1964TIP3   OH214018   3.229   2.523  10.365
 1964TIP3    H114019   3.307   2.512  10.423
 1964TIP3    H214020   3.248   2.604  10.316
 1965TIP3   OH214021   2.282   2.935  10.925
 1965TIP3    H114022   2.344   2.921  10.850
 1965TIP3    H214023   2.318   2.874  10.992
 1966TIP3   OH214024   2.970   3.146  10.321
 1966TIP3    H114025   2.927   3.234  10.326
 1966TIP3    H214026   2.893   3.088  10.342
 1967TIP3   OH214027   2.003   2.756  11.462
 1967TIP3    H114028   1.966   2.717  11.543
 1967TIP3    H214029   1.938   2.729  11.393
 1968TIP3   OH214030   2.689   2.731  11.661
 1968TIP3    H114031   2.642   2.650  11.643
 1968TIP3    H214032   2.780   2.696  11.672
 1969TIP3   OH214033   3.149   3.256  11.537
 1969TIP3    H114034   3.070   3.284  11.488
 1969TIP3    H214035   3.139   3.308  11.619
 1970TIP3   OH214036   3.693   2.464  10.364
 1970TIP3    H114037   3.671   2.473  10.269
 1970TIP3    H214038   3.719   2.555  10.385
 1971TIP3   OH214039   3.696   3.047  11.608
 1971TIP3    H114040   3.611   3.069  11.563
 1971TIP3    H214041   3.756   3.037  11.530
 1972TIP3   OH214042   3.472   3.414  10.357
 1972TIP3    H114043   3.450   3.335  10.408
 1972TIP3    H214044   3.527   3.381  10.284
 1973TIP3   OH214045   3.244   2.829  11.074
 1973TIP3    H114046   3.150   2.817  11.051
 1973TIP3    H214047   3.284   2.757  11.020
 1974TIP3   OH214048   2.494   3.273  10.720
 1974TIP3    H114049   2.515   3.368  10.710
 1974TIP3    H214050   2.409   3.269  10.672
 1975TIP3   OH214051   2.153   2.843  10.150
 1975TIP3    H114052   2.194   2.885  10.228
 1975TIP3    H214053   2.058   2.841  10.178
 1976TIP3   OH214054   2.632   3.048  10.643
 1976TIP3    H114055   2.584   3.132  10.661
 1976TIP3    H214056   2.575   2.982  10.686
 1977TIP3   OH214057   2.707   3.496  11.341
 1977TIP3    H114058   2.776   3.548  11.296
 1977TIP3    H214059   2.758   3.467  11.419
 1978TIP3   OH214060   2.507   3.528  10.590
 1978TIP3    H114061   2.414   3.540  10.615
 1978TIP3    H214062   2.544   3.607  10.634
 1979TIP3   OH214063   3.020   3.082  11.265
 1979TIP3    H114064   2.989   3.044  11.351
 1979TIP3    H214065   3.081   3.014  11.234
 1980TIP3   OH214066   3.289   3.205  10.177
 1980TIP3    H114067   3.286   3.159  10.264
 1980TIP3    H214068   3.205   3.173  10.139
 1981TIP3   OH214069   3.331   3.545  11.523
 1981TIP3    H114070   3.252   3.494  11.501
 1981TIP3    H214071   3.343   3.601  11.444
 1982TIP3   OH214072   3.716   3.627  10.199
 1982TIP3    H114073   3.734   3.692  10.130
 1982TIP3    H214074   3.645   3.674  10.249
 1983TIP3   OH214075   2.148   2.256  11.461
 1983TIP3    H114076   2.100   2.293  11.537
 1983TIP3    H214077   2.110   2.167  11.460
 1984TIP3   OH214078   3.353   3.062  10.388
 1984TIP3    H114079   3.331   2.968  10.401
 1984TIP3    H214080   3.451   3.060  10.398
 1985TIP3   OH214081   2.112   3.433  11.282
 1985TIP3    H114082   2.157   3.354  11.316
 1985TIP3    H214083   2.152   3.503  11.338
 1986TIP3   OH214084   2.687   3.335  10.039
 1986TIP3    H114085   2.678   3.264   9.974
 1986TIP3    H214086   2.637   3.300  10.117
 1987TIP3   OH214087   2.569   3.251  10.273
 1987TIP3    H114088   2.642   3.218  10.328
 1987TIP3    H214089   2.567   3.345  10.302
 1988TIP3   OH214090   2.275   2.979  10.350
 1988TIP3    H114091   2.188   3.007  10.388
 1988TIP3    H214092   2.302   3.060  10.302
 1989TIP3   OH214093   3.070   2.184  11.300
 1989TIP3    H114094   3.130   2.212  11.371
 1989TIP3    H214095   3.008   2.123  11.347
 1990TIP3   OH214096   3.107   2.090  10.462
 1990TIP3    H114097   3.116   2.152  10.387
 1990TIP3    H214098   3.132   2.150  10.535
 1991TIP3   OH214099   2.841   3.415  10.299
 1991TIP3    H114100   2.755   3.460  10.311
 1991TIP3    H214101   2.903   3.490  10.307
 1992TIP3   OH214102   2.844   2.375  10.571
 1992TIP3    H114103   2.910   2.442  10.601
 1992TIP3    H214104   2.812   2.337  10.656
 1993TIP3   OH214105   2.915   2.483  11.448
 1993TIP3    H114106   2.905   2.528  11.535
 1993TIP3    H214107   2.966   2.405  11.471
 1994TIP3   OH214108   2.871   2.036  10.617
 1994TIP3    H114109   2.839   2.114  10.666
 1994TIP3    H214110   2.937   2.077  10.557
 1995TIP3   OH214111   2.574   3.506  10.324
 1995TIP3    H114112   2.576   3.587  10.268
 1995TIP3    H214113   2.540   3.541  10.409
 1996TIP3   OH214114   2.409   2.180  10.296
 1996TIP3    H114115   2.423   2.254  10.358
 1996TIP3    H214116   2.496   2.135  10.299
 1997TIP3   OH214117   3.467   2.245  11.572
 1997TIP3    H114118   3.381   2.250  11.525
 1997TIP3    H214119   3.530   2.255  11.497
 1998TIP3   OH214120   3.333   2.596  10.953
 1998TIP3    H114121   3.276   2.554  11.020
 1998TIP3    H214122   3.419   2.569  10.992
 1999TIP3   OH214123   2.287   3.212  10.180
 1999TIP3    H114124   2.359   3.253  10.230
 1999TIP3    H214125   2.341   3.163  10.114
 2000TIP3   OH214126   2.086   2.504  10.149
 2000TIP3    H114127   2.128   2.585  10.182
 2000TIP3    H214128   2.046   2.533  10.065
 2001TIP3   OH214129   3.413   3.537  11.099
 2001TIP3    H114130   3.408   3.590  11.018
 2001TIP3    H214131   3.510   3.521  11.104
 2002TIP3   OH214132   2.200   1.984  10.996
 2002TIP3    H114133   2.196   1.953  10.902
 2002TIP3    H214134   2.176   1.900  11.040
 2003TIP3   OH214135   2.034   3.292  10.541
 2003TIP3    H114136   2.000   3.329  10.624
 2003TIP3    H214137   2.062   3.374  10.495
 2004TIP3   OH214138   2.014   3.622  11.706
 2004TIP3    H114139   2.080   3.623  11.777
 2004TIP3    H214140   1.997   3.527  11.698
 2005TIP3   OH214141   2.448   3.532  11.881
 2005TIP3    H114142   2.523   3.520  11.940
 2005TIP3    H214143   2.458   3.459  11.818
 2006TIP3   OH214144   2.904   3.523  10.030
 2006TIP3    H114145   2.849   3.448  10.062
 2006TIP3    H214146   2.976   3.477   9.983
 2007TIP3   OH214147   3.109   3.397  11.765
 2007TIP3    H114148   3.078   3.307  11.791
 2007TIP3    H214149   3.173   3.414  11.837
 2008TIP3   OH214150   3.346   3.426  10.031
 2008TIP3    H114151   3.346   3.346  10.088
 2008TIP3    H214152   3.435   3.424   9.991
 2009TIP3   OH214153   1.951   3.030  11.939
 2009TIP3    H114154   1.903   2.953  11.904
 2009TIP3    H214155   1.996   3.057  11.857
 2010TIP3   OH214156   2.441   3.034  10.013
 2010TIP3    H114157   2.406   2.951  10.048
 2010TIP3    H214158   2.521   3.005   9.964
 2011TIP3   OH214159   2.665   2.996  11.714
 2011TIP3    H114160   2.656   3.059  11.639
 2011TIP3    H214161   2.675   2.906  11.674
 2012TIP3   OH214162   3.038   3.165  10.060
 2012TIP3    H114163   3.000   3.159  10.150
 2012TIP3    H214164   3.007   3.083  10.018
 2013TIP3   OH214165   3.219   2.997  11.540
 2013TIP3    H114166   3.300   3.051  11.530
 2013TIP3    H214167   3.155   3.071  11.542
 2014TIP3   OH214168   2.106   2.752  11.799
 2014TIP3    H114169   2.063   2.667  11.812
 2014TIP3    H214170   2.120   2.782  11.892
 2015TIP3   OH214171   2.574   2.858  10.286
 2015TIP3    H114172   2.494   2.805  10.298
 2015TIP3    H214173   2.617   2.811  10.210
 2016TIP3   OH214174   2.443   2.619  11.438
 2016TIP3    H114175   2.398   2.693  11.484
 2016TIP3    H214176   2.531   2.659  11.423
 2017TIP3   OH214177   2.656   2.696  10.079
 2017TIP3    H114178   2.651   2.716   9.983
 2017TIP3    H214179   2.751   2.681  10.092
 2018TIP3   OH214180   3.005   2.889  11.879
 2018TIP3    H114181   3.045   2.858  11.795
 2018TIP3    H214182   3.032   2.818  11.940
 2019TIP3   OH214183   3.592   2.925  10.027
 2019TIP3    H114184   3.567   2.893   9.938
 2019TIP3    H214185   3.571   3.021  10.018
 2020TIP3   OH214186   2.557   2.418  11.585
 2020TIP3    H114187   2.566   2.339  11.527
 2020TIP3    H214188   2.506   2.480  11.526
 2021TIP3   OH214189   2.566   2.182  11.396
 2021TIP3    H114190   2.611   2.230  11.322
 2021TIP3    H214191   2.475   2.171  11.360
 2022TIP3   OH214192   2.694   2.757  11.374
 2022TIP3    H114193   2.779   2.803  11.379
 2022TIP3    H214194   2.636   2.830  11.343
 2023TIP3   OH214195   3.085   2.550  11.902
 2023TIP3    H114196   3.064   2.455  11.913
 2023TIP3    H214197   3.181   2.549  11.886
 2024TIP3   OH214198   3.301   2.807  11.704
 2024TIP3    H114199   3.273   2.880  11.643
 2024TIP3    H214200   3.397   2.808  11.686
 2025TIP3   OH214201   2.383   2.470  11.804
 2025TIP3    H114202   2.298   2.424  11.794
 2025TIP3    H214203   2.440   2.429  11.736
 2026TIP3   OH214204   2.656   1.933  11.380
 2026TIP3    H114205   2.627   2.027  11.389
 2026TIP3    H214206   2.575   1.890  11.351
 2027TIP3   OH214207   2.765   2.356  11.783
 2027TIP3    H114208   2.716   2.339  11.866
 2027TIP3    H214209   2.692   2.366  11.720
 2028TIP3   OH214210   3.058   2.259  11.683
 2028TIP3    H114211   2.963   2.268  11.698
 2028TIP3    H214212   3.081   2.202  11.760
 2029TIP3   OH214213   3.139   2.122  11.893
 2029TIP3    H114214   3.152   2.025  11.901
 2029TIP3    H214215   3.208   2.157  11.951
 2030TIP3   OH214216   2.169   2.287  11.828
 2030TIP3    H114217   2.170   2.200  11.783
 2030TIP3    H214218   2.202   2.266  11.918
 2031TIP3   OH214219   2.650   1.883  11.698
 2031TIP3    H114220   2.710   1.806  11.706
 2031TIP3    H214221   2.663   1.906  11.605
 2032TIP3   OH214222   2.684   2.031  11.949
 2032TIP3    H114223   2.675   1.984  11.864
 2032TIP3    H214224   2.621   2.104  11.937
 2033TIP3   OH214225   2.638   3.736  10.212
 2033TIP3    H114226   2.705   3.798  10.247
 2033TIP3    H214227   2.584   3.793  10.157
 2034TIP3   OH214228   2.008   3.179  10.153
 2034TIP3    H114229   2.106   3.185  10.156
 2034TIP3    H214230   1.992   3.130  10.068
 2035TIP3   OH214231   1.888   3.710  10.646
 2035TIP3    H114232   1.827   3.646  10.603
 2035TIP3    H214233   1.919   3.656  10.722
 2036TIP3   OH214234   1.973   3.530  10.840
 2036TIP3    H114235   1.911   3.459  10.863
 2036TIP3    H214236   1.991   3.566  10.929
 2037TIP3   OH214237   3.685   3.538  11.110
 2037TIP3    H114238   3.713   3.606  11.173
 2037TIP3    H214239   3.732   3.566  11.029
 2038TIP3   OH214240   3.627   3.589  11.395
 2038TIP3    H114241   3.610   3.505  11.349
 2038TIP3    H214242   3.694   3.561  11.459
 2039TIP3   OH214243   3.525   3.087  11.955
 2039TIP3    H114244   3.438   3.125  11.934
 2039TIP3    H214245   3.559   3.156  12.016
 2040TIP3   OH214246   3.616   3.006  10.407
 2040TIP3    H114247   3.703   3.045  10.431
 2040TIP3    H214248   3.610   2.932  10.470
 2041TIP3   OH214249   3.714   2.793  10.624
 2041TIP3    H114250   3.625   2.772  10.661
 2041TIP3    H214251   3.764   2.794  10.709
 2042TIP3   OH214252   3.618   3.095  11.089
 2042TIP3    H114253   3.681   3.031  11.052
 2042TIP3    H214254   3.677   3.172  11.101
 2043TIP3   OH214255   3.502   3.331  11.316
 2043TIP3    H114256   3.445   3.406  11.340
 2043TIP3    H214257   3.461   3.298  11.232
 2044TIP3   OH214258   3.754   2.784  10.243
 2044TIP3    H114259   3.676   2.799  10.187
 2044TIP3    H214260   3.736   2.844  10.317
 2045TIP3   OH214261   3.669   2.503  10.100
 2045TIP3    H114262   3.645   2.560  10.027
 2045TIP3    H214263   3.598   2.436  10.096
 2046TIP3   OH214264   3.487   2.675  10.725
 2046TIP3    H114265   3.480   2.590  10.676
 2046TIP3    H214266   3.437   2.651  10.805
 2047TIP3   OH214267   1.979   2.877  11.081
 2047TIP3    H114268   1.964   2.834  10.994
 2047TIP3    H214269   2.069   2.843  11.105
 2048TIP3   OH214270   3.555   2.809  11.609
 2048TIP3    H114271   3.612   2.734  11.639
 2048TIP3    H214272   3.615   2.886  11.604
 2049TIP3   OH214273   3.647   2.562  11.692
 2049TIP3    H114274   3.555   2.533  11.708
 2049TIP3    H214275   3.698   2.478  11.692
 2050TIP3   OH214276   3.494   2.289  10.054
 2050TIP3    H114277   3.545   2.221  10.103
 2050TIP3    H214278   3.418   2.241  10.019
 2051TIP3   OH214279   3.439   2.455  10.564
 2051TIP3    H114280   3.422   2.361  10.585
 2051TIP3    H214281   3.502   2.441  10.490
 2052TIP3   OH214282   3.523   2.476  11.092
 2052TIP3    H114283   3.621   2.470  11.081
 2052TIP3    H214284   3.520   2.488  11.189
 2053TIP3   OH214285   3.506   2.533  11.374
 2053TIP3    H114286   3.415   2.544  11.408
 2053TIP3    H214287   3.541   2.624  11.383
 2054TIP3   OH214288   1.957   2.342  11.652
 2054TIP3    H114289   2.028   2.346  11.719
 2054TIP3    H214290   1.930   2.248  11.662
 2055TIP3   OH214291   3.723   1.961  11.880
 2055TIP3    H114292   3.732   1.870  11.846
 2055TIP3    H214293   3.728   2.010  11.795
 2056TIP3   OH214294   3.451   2.182  10.524
 2056TIP3    H114295   3.494   2.158  10.608
 2056TIP3    H214296   3.426   2.093  10.492
 2057TIP3   OH214297   2.057   2.197  11.079
 2057TIP3    H114298   2.103   2.114  11.054
 2057TIP3    H214299   2.129   2.262  11.070
 2058TIP3   OH214300   1.898   2.499  11.076
 2058TIP3    H114301   1.958   2.482  11.001
 2058TIP3    H214302   1.937   2.577  11.117
 2059TIP3   OH214303   3.692   2.109  11.672
 2059TIP3    H114304   3.606   2.134  11.712
 2059TIP3    H214305   3.662   2.052  11.598
 2060TIP3   OH214306   3.664   2.142  10.199
 2060TIP3    H114307   3.721   2.106  10.126
 2060TIP3    H214308   3.727   2.196  10.251
 2061TIP3   OH214309   1.897   2.111  10.495
 2061TIP3    H114310   1.804   2.139  10.498
 2061TIP3    H214311   1.932   2.180  10.436
 2062TIP3   OH214312   3.455   3.604  10.752
 2062TIP3    H114313   3.485   3.599  10.659
 2062TIP3    H214314   3.519   3.665  10.790
 2063TIP3   OH214315   1.920   2.013  11.357
 2063TIP3    H114316   1.840   1.967  11.391
 2063TIP3    H214317   1.882   2.074  11.294
 2064TIP3   OH214318   2.134   3.340  11.768
 2064TIP3    H114319   2.049   3.330  11.721
 2064TIP3    H214320   2.125   3.284  11.846
 2065TIP3   OH214321   2.440   3.464  11.411
 2065TIP3    H114322   2.423   3.547  11.359
 2065TIP3    H214323   2.537   3.456  11.397
 2066TIP3   OH214324   2.850   3.556  11.617
 2066TIP3    H114325   2.845   3.538  11.714
 2066TIP3    H214326   2.938   3.600  11.612
 2067TIP3   OH214327   3.067   3.727  11.595
 2067TIP3    H114328   3.147   3.704  11.546
 2067TIP3    H214329   3.096   3.716  11.687
 2068TIP3   OH214330   3.577   1.934  11.506
 2068TIP3    H114331   3.495   1.957  11.459
 2068TIP3    H214332   3.591   1.841  11.476
 2069TIP3   OH214333   2.172   3.750  11.383
 2069TIP3    H114334   2.095   3.794  11.340
 2069TIP3    H214335   2.149   3.754  11.477
 2070TIP3   OH214336   2.400   3.684  11.258
 2070TIP3    H114337   2.309   3.707  11.289
 2070TIP3    H214338   2.419   3.760  11.201
 2071TIP3   OH214339   2.894   3.663  11.181
 2071TIP3    H114340   2.818   3.702  11.135
 2071TIP3    H214341   2.906   3.731  11.252
 2072TIP3   OH214342   3.099   3.543  11.323
 2072TIP3    H114343   3.032   3.565  11.254
 2072TIP3    H214344   3.165   3.612  11.300
 2073TIP3   OH214345   3.320   3.709  11.286
 2073TIP3    H114346   3.324   3.797  11.245
 2073TIP3    H214347   3.362   3.656  11.213
 2074TIP3   OH214348   2.142   3.585  11.054
 2074TIP3    H114349   2.111   3.535  11.133
 2074TIP3    H214350   2.232   3.551  11.039
 2075TIP3   OH214351   2.383   3.510  10.919
 2075TIP3    H114352   2.346   3.419  10.932
 2075TIP3    H214353   2.466   3.499  10.970
 2076TIP3   OH214354   2.585   3.459  11.078
 2076TIP3    H114355   2.641   3.382  11.059
 2076TIP3    H214356   2.599   3.469  11.174
 2077TIP3   OH214357   2.907   2.042  10.923
 2077TIP3    H114358   2.834   2.011  10.980
 2077TIP3    H214359   2.923   1.963  10.870
 2078TIP3   OH214360   3.445   1.905  10.921
 2078TIP3    H114361   3.505   1.954  10.859
 2078TIP3    H214362   3.359   1.945  10.900
 2079TIP3   OH214363   3.617   1.996  10.742
 2079TIP3    H114364   3.684   1.938  10.698
 2079TIP3    H214365   3.671   2.076  10.763
 2080TIP3   OH214366   2.191   1.925  10.721
 2080TIP3    H114367   2.104   1.922  10.679
 2080TIP3    H214368   2.217   1.830  10.716
 2081TIP3   OH214369   2.027   1.937  10.273
 2081TIP3    H114370   2.071   2.004  10.216
 2081TIP3    H214371   1.985   1.994  10.341
 2082TIP3   OH214372   2.596   1.905  10.717
 2082TIP3    H114373   2.688   1.890  10.692
 2082TIP3    H214374   2.605   1.931  10.811
 2083TIP3   OH214375   3.192   1.934  10.781
 2083TIP3    H114376   3.142   1.961  10.703
 2083TIP3    H214377   3.136   1.861  10.818
 2084TIP3   OH214378   3.335   1.937  10.446
 2084TIP3    H114379   3.255   1.991  10.427
 2084TIP3    H214380   3.290   1.851  10.463
 2085TIP3   OH214381   2.027   3.522  10.398
 2085TIP3    H114382   1.933   3.516  10.371
 2085TIP3    H214383   2.044   3.615  10.376
 2086TIP3   OH214384   2.175   2.141  10.161
 2086TIP3    H114385   2.234   2.088  10.103
 2086TIP3    H214386   2.236   2.156  10.236
 2087TIP3   OH214387   2.737   2.180  10.370
 2087TIP3    H114388   2.741   2.114  10.441
 2087TIP3    H214389   2.760   2.262  10.420
 2088TIP3   OH214390   2.961   3.707  10.246
 2088TIP3    H114391   3.046   3.665  10.224
 2088TIP3    H214392   2.911   3.681  10.166
 2089TIP3   OH214393   3.571   3.593  10.523
 2089TIP3    H114394   3.539   3.528  10.456
 2089TIP3    H214395   3.562   3.676  10.471
 2090TIP3   OH214396   2.148   2.020  11.681
 2090TIP3    H114397   2.085   1.947  11.694
 2090TIP3    H214398   2.225   1.993  11.737
 2091TIP3   OH214399   2.356   1.927  11.819
 2091TIP3    H114400   2.437   1.925  11.765
 2091TIP3    H214401   2.369   1.841  11.865
 2092TIP3   OH214402   2.162   3.629  10.107
 2092TIP3    H114403   2.134   3.670  10.191
 2092TIP3    H214404   2.213   3.552  10.137
 2093TIP3   OH214405   3.215   1.854  11.898
 2093TIP3    H114406   3.232   1.820  11.987
 2093TIP3    H214407   3.292   1.823  11.846
 2094TIP3   OH214408   3.559   3.470  11.678
 2094TIP3    H114409   3.492   3.476  11.608
 2094TIP3    H214410   3.530   3.545  11.733
 2095TIP3   OH214411   4.033   2.750  11.247
 2095TIP3    H114412   3.971   2.735  11.323
 2095TIP3    H214413   4.107   2.792  11.295
 2096TIP3   OH214414   4.169   3.216  11.070
 2096TIP3    H114415   4.107   3.150  11.035
 2096TIP3    H214416   4.254   3.170  11.051
 2097TIP3   OH214417   3.817   2.544  10.606
 2097TIP3    H114418   3.788   2.637  10.606
 2097TIP3    H214419   3.736   2.495  10.626
 2098TIP3   OH214420   3.883   2.749  10.857
 2098TIP3    H114421   3.897   2.652  10.864
 2098TIP3    H214422   3.951   2.774  10.792
 2099TIP3   OH214423   4.283   2.271  10.818
 2099TIP3    H114424   4.381   2.258  10.816
 2099TIP3    H214425   4.249   2.208  10.751
 2100TIP3   OH214426   3.959   2.493  10.895
 2100TIP3    H114427   4.043   2.466  10.935
 2100TIP3    H214428   3.970   2.452  10.807
 2101TIP3   OH214429   4.219   2.166  11.241
 2101TIP3    H114430   4.192   2.227  11.169
 2101TIP3    H214431   4.144   2.180  11.303
 2102TIP3   OH214432   4.412   2.918  11.265
 2102TIP3    H114433   4.368   3.003  11.285
 2102TIP3    H214434   4.493   2.944  11.218
 2103TIP3   OH214435   4.166   2.386  11.068
 2103TIP3    H114436   4.228   2.447  11.113
 2103TIP3    H214437   4.212   2.369  10.982
 2104TIP3   OH214438   4.310   3.152  11.362
 2104TIP3    H114439   4.300   3.238  11.317
 2104TIP3    H214440   4.218   3.142  11.392
 2105TIP3   OH214441   3.883   3.107  10.418
 2105TIP3    H114442   3.883   3.156  10.332
 2105TIP3    H214443   3.899   3.179  10.481
 2106TIP3   OH214444   4.304   2.853  10.763
 2106TIP3    H114445   4.282   2.831  10.669
 2106TIP3    H214446   4.383   2.796  10.775
 2107TIP3   OH214447   4.410   3.120  10.977
 2107TIP3    H114448   4.441   3.139  10.888
 2107TIP3    H214449   4.485   3.155  11.030
 2108TIP3   OH214450   4.348   2.732  11.090
 2108TIP3    H114451   4.361   2.786  11.011
 2108TIP3    H214452   4.369   2.800  11.157
 2109TIP3   OH214453   4.507   3.240  11.555
 2109TIP3    H114454   4.440   3.286  11.610
 2109TIP3    H214455   4.448   3.213  11.482
 2110TIP3   OH214456   4.139   2.803  11.505
 2110TIP3    H114457   4.118   2.877  11.566
 2110TIP3    H214458   4.063   2.745  11.519
 2111TIP3   OH214459   4.286   3.370  11.638
 2111TIP3    H114460   4.270   3.395  11.545
 2111TIP3    H214461   4.194   3.366  11.673
 2112TIP3   OH214462   4.265   2.789  10.498
 2112TIP3    H114463   4.206   2.858  10.462
 2112TIP3    H214464   4.211   2.710  10.479
 2113TIP3   OH214465   3.845   3.030  11.385
 2113TIP3    H114466   3.806   3.027  11.296
 2113TIP3    H214467   3.883   2.941  11.391
 2114TIP3   OH214468   3.816   3.296  11.076
 2114TIP3    H114469   3.901   3.335  11.104
 2114TIP3    H214470   3.757   3.372  11.090
 2115TIP3   OH214471   4.151   3.576  10.677
 2115TIP3    H114472   4.153   3.513  10.753
 2115TIP3    H214473   4.085   3.532  10.619
 2116TIP3   OH214474   4.063   3.184  11.463
 2116TIP3    H114475   4.073   3.134  11.546
 2116TIP3    H214476   3.973   3.156  11.434
 2117TIP3   OH214477   4.345   1.939  11.127
 2117TIP3    H114478   4.266   1.932  11.070
 2117TIP3    H214479   4.328   2.027  11.167
 2118TIP3   OH214480   4.254   2.575  11.292
 2118TIP3    H114481   4.168   2.613  11.262
 2118TIP3    H214482   4.311   2.605  11.218
 2119TIP3   OH214483   4.256   2.533  10.734
 2119TIP3    H114484   4.256   2.437  10.755
 2119TIP3    H214485   4.298   2.531  10.646
 2120TIP3   OH214486   4.019   2.487  11.383
 2120TIP3    H114487   4.113   2.512  11.395
 2120TIP3    H214488   4.026   2.391  11.369
 2121TIP3   OH214489   4.459   2.229  10.093
 2121TIP3    H114490   4.380   2.201  10.144
 2121TIP3    H214491   4.424   2.287  10.024
 2122TIP3   OH214492   3.757   2.213  10.772
 2122TIP3    H114493   3.805   2.219  10.856
 2122TIP3    H214494   3.816   2.265  10.716
 2123TIP3   OH214495   3.905   2.284  10.313
 2123TIP3    H114496   3.953   2.260  10.232
 2123TIP3    H214497   3.874   2.374  10.290
 2124TIP3   OH214498   3.990   2.353  10.656
 2124TIP3    H114499   3.944   2.413  10.591
 2124TIP3    H214500   4.015   2.279  10.601
 2125TIP3   OH214501   4.365   2.424  10.466
 2125TIP3    H114502   4.460   2.412  10.450
 2125TIP3    H214503   4.343   2.492  10.399
 2126TIP3   OH214504   4.313   2.566  10.242
 2126TIP3    H114505   4.224   2.553  10.205
 2126TIP3    H214506   4.364   2.549  10.161
 2127TIP3   OH214507   4.049   3.006  11.673
 2127TIP3    H114508   4.128   3.013  11.733
 2127TIP3    H214509   3.993   2.944  11.723
 2128TIP3   OH214510   4.201   2.079  10.630
 2128TIP3    H114511   4.134   2.031  10.684
 2128TIP3    H214512   4.244   2.007  10.582
 2129TIP3   OH214513   4.116   2.968  10.930
 2129TIP3    H114514   4.191   2.962  10.866
 2129TIP3    H214515   4.111   2.879  10.966
 2130TIP3   OH214516   3.871   2.750  11.458
 2130TIP3    H114517   3.859   2.741  11.555
 2130TIP3    H214518   3.788   2.716  11.419
 2131TIP3   OH214519   4.423   3.299  10.674
 2131TIP3    H114520   4.414   3.393  10.652
 2131TIP3    H214521   4.333   3.266  10.659
 2132TIP3   OH214522   4.009   2.789  10.155
 2132TIP3    H114523   4.038   2.847  10.230
 2132TIP3    H214524   3.912   2.785  10.171
 2133TIP3   OH214525   4.411   3.583  10.599
 2133TIP3    H114526   4.314   3.597  10.614
 2133TIP3    H214527   4.444   3.574  10.690
 2134TIP3   OH214528   4.022   2.224  11.431
 2134TIP3    H114529   3.974   2.277  11.498
 2134TIP3    H214530   4.018   2.137  11.474
 2135TIP3   OH214531   4.004   3.443  11.279
 2135TIP3    H114532   4.055   3.360  11.287
 2135TIP3    H214533   4.005   3.474  11.370
 2136TIP3   OH214534   4.392   3.224  10.312
 2136TIP3    H114535   4.459   3.222  10.242
 2136TIP3    H214536   4.379   3.321  10.320
 2137TIP3   OH214537   4.104   2.958  10.340
 2137TIP3    H114538   4.026   2.999  10.384
 2137TIP3    H214539   4.141   3.036  10.297
 2138TIP3   OH214540   4.400   3.504  10.335
 2138TIP3    H114541   4.393   3.586  10.284
 2138TIP3    H214542   4.409   3.535  10.429
 2139TIP3   OH214543   4.250   2.222  10.302
 2139TIP3    H114544   4.262   2.312  10.339
 2139TIP3    H214545   4.280   2.168  10.377
 2140TIP3   OH214546   4.154   3.228  10.188
 2140TIP3    H114547   4.235   3.237  10.242
 2140TIP3    H214548   4.188   3.181  10.110
 2141TIP3   OH214549   3.983   2.515  10.118
 2141TIP3    H114550   3.998   2.606  10.150
 2141TIP3    H214551   3.910   2.530  10.055
 2142TIP3   OH214552   4.080   1.959  11.029
 2142TIP3    H114553   4.067   1.952  10.932
 2142TIP3    H214554   4.036   1.877  11.058
 2143TIP3   OH214555   3.955   3.402  10.591
 2143TIP3    H114556   3.879   3.442  10.637
 2143TIP3    H214557   3.941   3.431  10.498
 2144TIP3   OH214558   3.864   3.614  11.701
 2144TIP3    H114559   3.939   3.596  11.760
 2144TIP3    H214560   3.847   3.525  11.665
 2145TIP3   OH214561   4.310   3.468  11.969
 2145TIP3    H114562   4.382   3.424  12.018
 2145TIP3    H214563   4.297   3.413  11.890
 2146TIP3   OH214564   3.868   3.062  11.940
 2146TIP3    H114565   3.873   2.966  11.951
 2146TIP3    H214566   3.833   3.070  11.850
 2147TIP3   OH214567   4.271   3.032  10.018
 2147TIP3    H114568   4.265   2.954  10.073
 2147TIP3    H214569   4.368   3.041  10.004
 2148TIP3   OH214570   3.927   2.734  11.751
 2148TIP3    H114571   3.925   2.641  11.728
 2148TIP3    H214572   3.920   2.731  11.849
 2149TIP3   OH214573   4.442   2.811  10.235
 2149TIP3    H114574   4.425   2.854  10.321
 2149TIP3    H214575   4.382   2.735  10.241
 2150TIP3   OH214576   4.353   2.649  11.555
 2150TIP3    H114577   4.277   2.711  11.548
 2150TIP3    H214578   4.355   2.616  11.463
 2151TIP3   OH214579   4.320   2.378  11.620
 2151TIP3    H114580   4.357   2.325  11.547
 2151TIP3    H214581   4.320   2.466  11.578
 2152TIP3   OH214582   4.438   2.294  11.384
 2152TIP3    H114583   4.496   2.305  11.308
 2152TIP3    H214584   4.365   2.243  11.344
 2153TIP3   OH214585   4.229   2.473  11.880
 2153TIP3    H114586   4.147   2.449  11.834
 2153TIP3    H214587   4.292   2.440  11.812
 2154TIP3   OH214588   4.024   2.287  11.795
 2154TIP3    H114589   4.026   2.199  11.751
 2154TIP3    H214590   4.061   2.268  11.884
 2155TIP3   OH214591   3.890   3.229  10.180
 2155TIP3    H114592   3.985   3.253  10.169
 2155TIP3    H214593   3.872   3.186  10.094
 2156TIP3   OH214594   3.784   3.673  10.649
 2156TIP3    H114595   3.708   3.627  10.607
 2156TIP3    H214596   3.796   3.618  10.729
 2157TIP3   OH214597   3.832   3.496  10.843
 2157TIP3    H114598   3.820   3.404  10.874
 2157TIP3    H214599   3.892   3.531  10.913
 2158TIP3   OH214600   3.840   2.898  11.089
 2158TIP3    H114601   3.859   2.851  11.005
 2158TIP3    H214602   3.918   2.870  11.141
 2159TIP3   OH214603   3.807   2.340  11.641
 2159TIP3    H114604   3.878   2.348  11.708
 2159TIP3    H214605   3.773   2.250  11.662
 2160TIP3   OH214606   3.946   2.188  11.058
 2160TIP3    H114607   3.996   2.103  11.045
 2160TIP3    H214608   4.018   2.254  11.057
 2161TIP3   OH214609   3.787   2.519  11.095
 2161TIP3    H114610   3.844   2.496  11.019
 2161TIP3    H214611   3.845   2.579  11.143
 2162TIP3   OH214612   3.824   2.082  10.480
 2162TIP3    H114613   3.727   2.088  10.485
 2162TIP3    H214614   3.847   2.164  10.432
 2163TIP3   OH214615   3.785   1.987  11.318
 2163TIP3    H114616   3.716   1.953  11.379
 2163TIP3    H214617   3.742   2.062  11.276
 2164TIP3   OH214618   4.026   3.330  11.759
 2164TIP3    H114619   3.945   3.317  11.705
 2164TIP3    H214620   4.035   3.243  11.801
 2165TIP3   OH214621   4.313   3.454  11.373
 2165TIP3    H114622   4.287   3.542  11.336
 2165TIP3    H214623   4.405   3.468  11.397
 2166TIP3   OH214624   4.063   3.750  11.382
 2166TIP3    H114625   3.984   3.787  11.337
 2166TIP3    H214626   4.032   3.746  11.473
 2167TIP3   OH214627   4.259   3.670  11.223
 2167TIP3    H114628   4.173   3.702  11.259
 2167TIP3    H214629   4.300   3.753  11.193
 2168TIP3   OH214630   4.009   3.546  11.030
 2168TIP3    H114631   4.005   3.508  11.121
 2168TIP3    H214632   4.089   3.501  10.995
 2169TIP3   OH214633   4.206   3.419  10.897
 2169TIP3    H114634   4.187   3.335  10.945
 2169TIP3    H214635   4.288   3.445  10.947
 2170TIP3   OH214636   4.396   3.483  11.064
 2170TIP3    H114637   4.435   3.416  11.123
 2170TIP3    H214638   4.346   3.541  11.126
 2171TIP3   OH214639   4.030   1.912  10.767
 2171TIP3    H114640   3.938   1.902  10.732
 2171TIP3    H214641   4.071   1.827  10.740
 2172TIP3   OH214642   3.932   1.936  10.265
 2172TIP3    H114643   3.985   2.009  10.228
 2172TIP3    H214644   3.885   1.980  10.339
 2173TIP3   OH214645   3.912   3.526  10.362
 2173TIP3    H114646   3.832   3.538  10.307
 2173TIP3    H214647   3.950   3.616  10.352
 2174TIP3   OH214648   4.076   2.159  10.118
 2174TIP3    H114649   4.128   2.089  10.072
 2174TIP3    H214650   4.143   2.193  10.183
 2175TIP3   OH214651   4.021   2.024  11.640
 2175TIP3    H114652   3.932   1.986  11.654
 2175TIP3    H214653   4.077   1.969  11.700
 2176TIP3   OH214654   4.161   1.884  11.830
 2176TIP3    H114655   4.255   1.882  11.852
 2176TIP3    H214656   4.124   1.831  11.904
 2177TIP3   OH214657   4.097   3.660  10.093
 2177TIP3    H114658   4.041   3.679  10.172
 2177TIP3    H214659   4.153   3.588  10.126
 2178TIP3   OH214660   0.116   0.020  10.614
 2178TIP3    H114661   0.078   0.109  10.606
 2178TIP3    H214662   0.065  -0.032  10.547
 2179TIP3   OH214663   1.761   3.994  11.157
 2179TIP3    H114664   1.769   4.084  11.195
 2179TIP3    H214665   1.799   4.008  11.069
 2180TIP3   OH214666   1.299   4.355  11.142
 2180TIP3    H114667   1.284   4.259  11.128
 2180TIP3    H214668   1.211   4.389  11.123
 2181TIP3   OH214669   0.552   4.117  10.829
 2181TIP3    H114670   0.562   4.208  10.790
 2181TIP3    H214671   0.499   4.076  10.758
 2182TIP3   OH214672   1.308   4.207  10.673
 2182TIP3    H114673   1.357   4.165  10.748
 2182TIP3    H214674   1.378   4.264  10.639
 2183TIP3   OH214675   0.247   4.358  10.886
 2183TIP3    H114676   0.312   4.294  10.922
 2183TIP3    H214677   0.232   4.318  10.796
 2184TIP3   OH214678   1.768   4.195  11.373
 2184TIP3    H114679   1.722   4.272  11.331
 2184TIP3    H214680   1.807   4.237  11.452
 2185TIP3   OH214681   0.434   4.061  11.263
 2185TIP3    H114682   0.411   4.104  11.178
 2185TIP3    H214683   0.370   4.107  11.322
 2186TIP3   OH214684   1.494   4.119  10.844
 2186TIP3    H114685   1.515   4.063  10.921
 2186TIP3    H214686   1.561   4.188  10.851
 2187TIP3   OH214687   0.416   4.221  11.047
 2187TIP3    H114688   0.474   4.294  11.078
 2187TIP3    H214689   0.468   4.187  10.970
 2188TIP3   OH214690   1.484   4.089  11.231
 2188TIP3    H114691   1.430   4.131  11.161
 2188TIP3    H214692   1.572   4.085  11.189
 2189TIP3   OH214693   0.784   3.775  10.992
 2189TIP3    H114694   0.753   3.683  10.987
 2189TIP3    H214695   0.698   3.818  11.017
 2190TIP3   OH214696   1.681   3.769  10.344
 2190TIP3    H114697   1.603   3.799  10.395
 2190TIP3    H214698   1.711   3.854  10.305
 2191TIP3   OH214699   1.484   4.357  11.768
 2191TIP3    H114700   1.408   4.356  11.708
 2191TIP3    H214701   1.547   4.309  11.711
 2192TIP3   OH214702   0.551   3.893  11.071
 2192TIP3    H114703   0.462   3.890  11.028
 2192TIP3    H214704   0.534   3.958  11.142
 2193TIP3   OH214705   1.021   3.849  11.385
 2193TIP3    H114706   1.076   3.801  11.451
 2193TIP3    H214707   0.929   3.835  11.418
 2194TIP3   OH214708   1.280   4.242  11.547
 2194TIP3    H114709   1.201   4.228  11.606
 2194TIP3    H214710   1.246   4.298  11.476
 2195TIP3   OH214711   1.004   4.096  10.156
 2195TIP3    H114712   0.971   4.064  10.242
 2195TIP3    H214713   0.952   4.038  10.097
 2196TIP3   OH214714   0.587   4.362  11.218
 2196TIP3    H114715   0.513   4.369  11.282
 2196TIP3    H214716   0.589   4.455  11.185
 2197TIP3   OH214717   0.546   4.370  10.745
 2197TIP3    H114718   0.474   4.393  10.684
 2197TIP3    H214719   0.623   4.420  10.708
 2198TIP3   OH214720   1.115   4.474  10.583
 2198TIP3    H114721   1.072   4.558  10.557
 2198TIP3    H214722   1.149   4.441  10.497
 2199TIP3   OH214723   1.042   4.443  11.675
 2199TIP3    H114724   0.989   4.392  11.740
 2199TIP3    H214725   1.117   4.470  11.730
 2200TIP3   OH214726   1.120   4.354  10.816
 2200TIP3    H114727   1.094   4.399  10.732
 2200TIP3    H214728   1.183   4.289  10.779
 2201TIP3   OH214729   0.381   4.412  11.392
 2201TIP3    H114730   0.336   4.478  11.449
 2201TIP3    H214731   0.325   4.334  11.408
 2202TIP3   OH214732   0.656   4.110  10.059
 2202TIP3    H114733   0.615   4.084  10.145
 2202TIP3    H214734   0.595   4.175  10.025
 2203TIP3   OH214735   0.050   4.090  10.805
 2203TIP3    H114736   0.080   4.099  10.899
 2203TIP3    H214737   0.020   3.996  10.804
 2204TIP3   OH214738   0.114   4.199  10.300
 2204TIP3    H114739   0.198   4.217  10.255
 2204TIP3    H214740   0.055   4.185  10.223
 2205TIP3   OH214741   0.860   4.126  10.803
 2205TIP3    H114742   0.770   4.128  10.842
 2205TIP3    H214743   0.911   4.069  10.865
 2206TIP3   OH214744   0.270   4.242  10.651
 2206TIP3    H114745   0.190   4.219  10.604
 2206TIP3    H214746   0.326   4.161  10.645
 2207TIP3   OH214747   0.650   4.273  10.451
 2207TIP3    H114748   0.727   4.329  10.468
 2207TIP3    H214749   0.596   4.330  10.394
 2208TIP3   OH214750   1.248   4.098  11.089
 2208TIP3    H114751   1.209   4.073  11.177
 2208TIP3    H214752   1.222   4.026  11.031
 2209TIP3   OH214753   0.538   4.411  10.200
 2209TIP3    H114754   0.495   4.389  10.116
 2209TIP3    H214755   0.631   4.409  10.176
 2210TIP3   OH214756   0.987   4.373  11.043
 2210TIP3    H114757   1.034   4.364  10.956
 2210TIP3    H214758   0.940   4.288  11.046
 2211TIP3   OH214759   0.404   4.008  10.629
 2211TIP3    H114760   0.364   3.922  10.658
 2211TIP3    H214761   0.461   3.982  10.556
 2212TIP3   OH214762   0.811   4.207  11.174
 2212TIP3    H114763   0.739   4.274  11.177
 2212TIP3    H214764   0.873   4.241  11.243
 2213TIP3   OH214765   1.233   4.128  10.280
 2213TIP3    H114766   1.155   4.116  10.222
 2213TIP3    H214767   1.236   4.226  10.281
 2214TIP3   OH214768   1.235   4.376  10.365
 2214TIP3    H114769   1.293   4.316  10.417
 2214TIP3    H214770   1.302   4.440  10.334
 2215TIP3   OH214771   1.793   4.340  10.360
 2215TIP3    H114772   1.768   4.348  10.265
 2215TIP3    H214773   1.765   4.432  10.385
 2216TIP3   OH214774   0.255   4.157  11.448
 2216TIP3    H114775   0.168   4.158  11.488
 2216TIP3    H214776   0.286   4.070  11.480
 2217TIP3   OH214777   1.170   4.066  11.347
 2217TIP3    H114778   1.208   4.075  11.436
 2217TIP3    H214779   1.104   3.994  11.360
 2218TIP3   OH214780   1.197   4.001  10.518
 2218TIP3    H114781   1.205   4.039  10.428
 2218TIP3    H214782   1.248   4.067  10.569
 2219TIP3   OH214783   0.963   4.214  10.555
 2219TIP3    H114784   0.997   4.305  10.557
 2219TIP3    H214785   0.931   4.200  10.647
 2220TIP3   OH214786   0.968   4.268  11.443
 2220TIP3    H114787   0.995   4.319  11.521
 2220TIP3    H214788   1.034   4.197  11.437
 2221TIP3   OH214789   0.974   3.907  10.635
 2221TIP3    H114790   0.940   3.988  10.679
 2221TIP3    H214791   1.058   3.945  10.597
 2222TIP3   OH214792   0.583   4.046  10.306
 2222TIP3    H114793   0.586   4.119  10.371
 2222TIP3    H214794   0.665   3.997  10.329
 2223TIP3   OH214795   1.558   4.189  11.563
 2223TIP3    H114796   1.466   4.190  11.528
 2223TIP3    H214797   1.610   4.178  11.481
 2224TIP3   OH214798   0.194   4.407  10.077
 2224TIP3    H114799   0.193   4.454  10.163
 2224TIP3    H214800   0.101   4.379  10.072
 2225TIP3   OH214801   0.304   3.838  10.981
 2225TIP3    H114802   0.303   3.824  10.885
 2225TIP3    H214803   0.283   3.746  11.011
 2226TIP3   OH214804   0.665   4.214  11.602
 2226TIP3    H114805   0.671   4.145  11.531
 2226TIP3    H214806   0.621   4.286  11.554
 2227TIP3   OH214807   0.673   4.074  11.377
 2227TIP3    H114808   0.722   4.109  11.300
 2227TIP3    H214809   0.580   4.089  11.349
 2228TIP3   OH214810   1.220   4.334  11.947
 2228TIP3    H114811   1.172   4.271  11.890
 2228TIP3    H214812   1.263   4.276  12.012
 2229TIP3   OH214813   0.494   4.306  11.808
 2229TIP3    H114814   0.418   4.242  11.808
 2229TIP3    H214815   0.558   4.259  11.752
 2230TIP3   OH214816   0.744   3.814  11.406
 2230TIP3    H114817   0.711   3.906  11.397
 2230TIP3    H214818   0.692   3.768  11.337
 2231TIP3   OH214819   0.858   4.258  11.792
 2231TIP3    H114820   0.807   4.241  11.873
 2231TIP3    H214821   0.797   4.224  11.722
 2232TIP3   OH214822   1.105   4.162  11.730
 2232TIP3    H114823   1.012   4.176  11.757
 2232TIP3    H214824   1.137   4.091  11.791
 2233TIP3   OH214825   1.240   3.996  11.891
 2233TIP3    H114826   1.261   3.900  11.883
 2233TIP3    H214827   1.306   4.025  11.956
 2234TIP3   OH214828   0.268   4.152  11.815
 2234TIP3    H114829   0.244   4.072  11.762
 2234TIP3    H214830   0.247   4.123  11.905
 2235TIP3   OH214831   0.740   3.772  11.697
 2235TIP3    H114832   0.816   3.711  11.708
 2235TIP3    H214833   0.741   3.779  11.600
 2236TIP3   OH214834   0.765   3.902  11.944
 2236TIP3    H114835   0.755   3.852  11.861
 2236TIP3    H214836   0.708   3.979  11.927
 2237TIP3   OH214837   1.650   4.359  10.102
 2237TIP3    H114838   1.655   4.382  10.009
 2237TIP3    H214839   1.638   4.262  10.095
 2238TIP3   OH214840   1.615   4.092  10.028
 2238TIP3    H114841   1.673   4.036  10.084
 2238TIP3    H214842   1.527   4.055  10.042
 2239TIP3   OH214843   1.558   4.245  10.490
 2239TIP3    H114844   1.579   4.155  10.524
 2239TIP3    H214845   1.641   4.270  10.446
 2240TIP3   OH214846   1.678   4.261  11.078
 2240TIP3    H114847   1.743   4.333  11.063
 2240TIP3    H214848   1.604   4.309  11.116
 2241TIP3   OH214849   1.605   4.422  11.315
 2241TIP3    H114850   1.513   4.450  11.330
 2241TIP3    H214851   1.630   4.489  11.249
 2242TIP3   OH214852   0.113   4.365  11.749
 2242TIP3    H114853   0.184   4.304  11.777
 2242TIP3    H214854   0.048   4.306  11.706
 2243TIP3   OH214855   1.849   3.852  11.898
 2243TIP3    H114856   1.837   3.772  11.845
 2243TIP3    H214857   1.859   3.919  11.827
 2244TIP3   OH214858   1.624   3.987  10.548
 2244TIP3    H114859   1.652   3.948  10.634
 2244TIP3    H214860   1.546   3.932  10.526
 2245TIP3   OH214861   0.105   4.052  11.079
 2245TIP3    H114862   0.167   3.978  11.082
 2245TIP3    H214863   0.159   4.126  11.110
 2246TIP3   OH214864   0.033   4.365  11.054
 2246TIP3    H114865   0.104   4.361  10.988
 2246TIP3    H214866   0.048   4.446  11.103
 2247TIP3   OH214867   1.806   4.009  11.693
 2247TIP3    H114868   1.723   4.049  11.727
 2247TIP3    H214869   1.768   3.956  11.620
 2248TIP3   OH214870   1.806   3.980  10.214
 2248TIP3    H114871   1.843   3.936  10.134
 2248TIP3    H214872   1.878   4.041  10.241
 2249TIP3   OH214873   0.027   3.992  10.457
 2249TIP3    H114874   0.015   4.013  10.551
 2249TIP3    H214875   0.069   4.072  10.420
 2250TIP3   OH214876   0.048   3.844  11.349
 2250TIP3    H114877  -0.006   3.911  11.396
 2250TIP3    H214878   0.036   3.874  11.258
 2251TIP3   OH214879   1.705   3.841  11.506
 2251TIP3    H114880   1.665   3.888  11.431
 2251TIP3    H214881   1.714   3.752  11.468
 2252TIP3   OH214882   0.986   3.921  10.915
 2252TIP3    H114883   0.914   3.866  10.953
 2252TIP3    H214884   1.003   3.876  10.831
 2253TIP3   OH214885   1.563   3.798  10.926
 2253TIP3    H114886   1.635   3.843  10.877
 2253TIP3    H214887   1.484   3.822  10.872
 2254TIP3   OH214888   1.743   3.900  10.769
 2254TIP3    H114889   1.803   3.839  10.721
 2254TIP3    H214890   1.802   3.979  10.777
 2255TIP3   OH214891   0.283   3.785  10.712
 2255TIP3    H114892   0.191   3.769  10.685
 2255TIP3    H214893   0.322   3.695  10.704
 2256TIP3   OH214894   0.158   3.766  10.316
 2256TIP3    H114895   0.205   3.803  10.238
 2256TIP3    H214896   0.123   3.847  10.357
 2257TIP3   OH214897   0.690   3.781  10.696
 2257TIP3    H114898   0.786   3.793  10.690
 2257TIP3    H214899   0.662   3.852  10.756
 2258TIP3   OH214900   1.316   3.799  10.805
 2258TIP3    H114901   1.262   3.806  10.726
 2258TIP3    H214902   1.270   3.734  10.862
 2259TIP3   OH214903   1.438   3.820  10.462
 2259TIP3    H114904   1.362   3.847  10.409
 2259TIP3    H214905   1.405   3.731  10.490
 2260TIP3   OH214906   0.278   3.968  10.151
 2260TIP3    H114907   0.354   3.932  10.100
 2260TIP3    H214908   0.323   4.011  10.225
 2261TIP3   OH214909   0.861   3.999  10.382
 2261TIP3    H114910   0.900   3.951  10.457
 2261TIP3    H214911   0.869   4.091  10.416
 2262TIP3   OH214912   0.222   3.917  11.691
 2262TIP3    H114913   0.182   3.829  11.682
 2262TIP3    H214914   0.307   3.892  11.731
 2263TIP3   OH214915   0.447   3.824  11.834
 2263TIP3    H114916   0.524   3.812  11.776
 2263TIP3    H214917   0.461   3.747  11.894
 2264TIP3   OH214918   1.326   3.744  11.891
 2264TIP3    H114919   1.350   3.704  11.977
 2264TIP3    H214920   1.402   3.721  11.834
 2265TIP3   OH214921   1.969  -0.013  10.582
 2265TIP3    H114922   1.948   0.078  10.551
 2265TIP3    H214923   1.948  -0.062  10.501
 2266TIP3   OH214924   3.730   4.020  11.162
 2266TIP3    H114925   3.675   4.090  11.202
 2266TIP3    H214926   3.802   4.072  11.121
 2267TIP3   OH214927   3.185   4.325  11.154
 2267TIP3    H114928   3.178   4.228  11.142
 2267TIP3    H214929   3.100   4.355  11.120
 2268TIP3   OH214930   2.480   4.087  10.800
 2268TIP3    H114931   2.463   4.182  10.783
 2268TIP3    H214932   2.411   4.047  10.746
 2269TIP3   OH214933   3.196   4.182  10.683
 2269TIP3    H114934   3.252   4.131  10.747
 2269TIP3    H214935   3.268   4.234  10.643
 2270TIP3   OH214936   2.090   4.359  10.921
 2270TIP3    H114937   2.116   4.282  10.975
 2270TIP3    H214938   2.097   4.318  10.832
 2271TIP3   OH214939   3.654   4.199  11.377
 2271TIP3    H114940   3.593   4.269  11.344
 2271TIP3    H214941   3.680   4.236  11.463
 2272TIP3   OH214942   2.304   4.048  11.265
 2272TIP3    H114943   2.283   4.105  11.189
 2272TIP3    H214944   2.236   4.075  11.330
 2273TIP3   OH214945   3.398   4.096  10.836
 2273TIP3    H114946   3.405   4.048  10.919
 2273TIP3    H214947   3.478   4.151  10.841
 2274TIP3   OH214948   2.290   4.231  11.052
 2274TIP3    H114949   2.344   4.301  11.094
 2274TIP3    H214950   2.335   4.225  10.965
 2275TIP3   OH214951   3.386   4.065  11.235
 2275TIP3    H114952   3.309   4.067  11.175
 2275TIP3    H214953   3.456   4.107  11.181
 2276TIP3   OH214954   2.667   3.764  11.017
 2276TIP3    H114955   2.631   3.674  11.009
 2276TIP3    H214956   2.583   3.812  11.038
 2277TIP3   OH214957   3.554   3.780  10.341
 2277TIP3    H114958   3.462   3.805  10.367
 2277TIP3    H214959   3.588   3.863  10.303
 2278TIP3   OH214960   3.382   4.343  11.763
 2278TIP3    H114961   3.329   4.383  11.692
 2278TIP3    H214962   3.444   4.292  11.709
 2279TIP3   OH214963   2.443   3.887  11.079
 2279TIP3    H114964   2.356   3.871  11.039
 2279TIP3    H214965   2.421   3.961  11.138
 2280TIP3   OH214966   2.913   3.834  11.399
 2280TIP3    H114967   2.954   3.801  11.482
 2280TIP3    H214968   2.818   3.826  11.420
 2281TIP3   OH214969   3.188   4.282  11.538
 2281TIP3    H114970   3.115   4.250  11.596
 2281TIP3    H214971   3.140   4.326  11.467
 2282TIP3   OH214972   2.881   4.113  10.148
 2282TIP3    H114973   2.850   4.091  10.237
 2282TIP3    H214974   2.835   4.047  10.093
 2283TIP3   OH214975   2.465   4.364  11.209
 2283TIP3    H114976   2.391   4.374  11.273
 2283TIP3    H214977   2.468   4.454  11.171
 2284TIP3   OH214978   2.415   4.350  10.759
 2284TIP3    H114979   2.361   4.341  10.678
 2284TIP3    H214980   2.490   4.405  10.727
 2285TIP3   OH214981   2.989   4.445  10.568
 2285TIP3    H114982   2.944   4.509  10.511
 2285TIP3    H214983   3.048   4.405  10.502
 2286TIP3   OH214984   2.944   4.450  11.687
 2286TIP3    H114985   2.889   4.405  11.753
 2286TIP3    H214986   3.019   4.480  11.742
 2287TIP3   OH214987   3.011   4.360  10.820
 2287TIP3    H114988   2.979   4.390  10.731
 2287TIP3    H214989   3.075   4.292  10.791
 2288TIP3   OH214990   2.274   4.372  11.388
 2288TIP3    H114991   2.216   4.438  11.428
 2288TIP3    H214992   2.230   4.290  11.419
 2289TIP3   OH214993   2.524   4.105  10.044
 2289TIP3    H114994   2.491   4.084  10.135
 2289TIP3    H214995   2.460   4.172  10.015
 2290TIP3   OH214996   1.890   4.123  10.791
 2290TIP3    H114997   1.955   4.137  10.861
 2290TIP3    H214998   1.942   4.138  10.709
 2291TIP3   OH214999   1.983   4.172  10.296
 2291TIP3    H115000   2.034   4.227  10.234
 2291TIP3    H215001   1.912   4.237  10.318
 2292TIP3   OH215002   2.757   4.114  10.793
 2292TIP3    H115003   2.659   4.106  10.800
 2292TIP3    H215004   2.787   4.056  10.866
 2293TIP3   OH215005   2.159   4.219  10.690
 2293TIP3    H115006   2.106   4.243  10.612
 2293TIP3    H215007   2.214   4.147  10.651
 2294TIP3   OH215008   2.542   4.261  10.460
 2294TIP3    H115009   2.632   4.289  10.481
 2294TIP3    H215010   2.502   4.340  10.421
 2295TIP3   OH215011   3.135   4.069  11.107
 2295TIP3    H115012   3.078   4.059  11.187
 2295TIP3    H215013   3.086   4.020  11.040
 2296TIP3   OH215014   2.400   4.389  10.175
 2296TIP3    H115015   2.383   4.375  10.080
 2296TIP3    H215016   2.495   4.385  10.180
 2297TIP3   OH215017   2.867   4.386  11.046
 2297TIP3    H115018   2.913   4.388  10.960
 2297TIP3    H215019   2.834   4.294  11.045
 2298TIP3   OH215020   2.296   3.990  10.603
 2298TIP3    H115021   2.242   3.924  10.653
 2298TIP3    H215022   2.349   3.932  10.546
 2299TIP3   OH215023   2.698   4.208  11.197
 2299TIP3    H115024   2.630   4.275  11.180
 2299TIP3    H215025   2.755   4.254  11.262
 2300TIP3   OH215026   3.105   4.132  10.273
 2300TIP3    H115027   3.027   4.134  10.211
 2300TIP3    H215028   3.121   4.228  10.278
 2301TIP3   OH215029   3.142   4.373  10.364
 2301TIP3    H115030   3.213   4.326  10.411
 2301TIP3    H215031   3.193   4.446  10.328
 2302TIP3   OH215032   3.673   4.305  10.351
 2302TIP3    H115033   3.650   4.288  10.258
 2302TIP3    H215034   3.638   4.398  10.362
 2303TIP3   OH215035   2.155   4.154  11.481
 2303TIP3    H115036   2.059   4.145  11.486
 2303TIP3    H215037   2.182   4.071  11.524
 2304TIP3   OH215038   3.047   4.065  11.368
 2304TIP3    H115039   3.111   4.047  11.437
 2304TIP3    H215040   2.985   3.989  11.380
 2305TIP3   OH215041   3.092   3.999  10.505
 2305TIP3    H115042   3.087   4.049  10.420
 2305TIP3    H215043   3.136   4.063  10.564
 2306TIP3   OH215044   2.833   4.210  10.547
 2306TIP3    H115045   2.875   4.297  10.561
 2306TIP3    H215046   2.812   4.184  10.641
 2307TIP3   OH215047   2.867   4.282  11.446
 2307TIP3    H115048   2.909   4.335  11.516
 2307TIP3    H215049   2.932   4.209  11.433
 2308TIP3   OH215050   2.868   3.912  10.636
 2308TIP3    H115051   2.836   3.972  10.706
 2308TIP3    H215052   2.944   3.965  10.600
 2309TIP3   OH215053   2.495   4.053  10.299
 2309TIP3    H115054   2.480   4.122  10.367
 2309TIP3    H215055   2.574   4.009  10.338
 2310TIP3   OH215056   3.440   4.157  11.564
 2310TIP3    H115057   3.349   4.183  11.535
 2310TIP3    H215058   3.486   4.148  11.479
 2311TIP3   OH215059   2.049   4.373  10.126
 2311TIP3    H115060   2.094   4.427  10.194
 2311TIP3    H215061   1.986   4.439  10.091
 2312TIP3   OH215062   2.195   3.843  10.994
 2312TIP3    H115063   2.191   3.838  10.896
 2312TIP3    H215064   2.169   3.750  11.016
 2313TIP3   OH215065   2.524   4.241  11.603
 2313TIP3    H115066   2.527   4.167  11.538
 2313TIP3    H215067   2.544   4.318  11.548
 2314TIP3   OH215068   2.551   4.077  11.390
 2314TIP3    H115069   2.602   4.114  11.314
 2314TIP3    H215070   2.459   4.091  11.361
 2315TIP3   OH215071   3.120   4.334  11.972
 2315TIP3    H115072   3.091   4.277  11.899
 2315TIP3    H215073   3.169   4.270  12.027
 2316TIP3   OH215074   2.374   4.316  11.819
 2316TIP3    H115075   2.293   4.260  11.816
 2316TIP3    H215076   2.426   4.282  11.744
 2317TIP3   OH215077   2.639   3.810  11.397
 2317TIP3    H115078   2.600   3.901  11.396
 2317TIP3    H215079   2.570   3.757  11.354
 2318TIP3   OH215080   2.725   4.246  11.794
 2318TIP3    H115081   2.672   4.227  11.874
 2318TIP3    H215082   2.663   4.220  11.724
 2319TIP3   OH215083   3.015   4.157  11.705
 2319TIP3    H115084   2.923   4.175  11.730
 2319TIP3    H215085   3.041   4.087  11.770
 2320TIP3   OH215086   3.140   3.985  11.886
 2320TIP3    H115087   3.167   3.891  11.885
 2320TIP3    H215088   3.196   4.022  11.956
 2321TIP3   OH215089   2.147   4.162  11.818
 2321TIP3    H115090   2.119   4.080  11.773
 2321TIP3    H215091   2.160   4.131  11.910
 2322TIP3   OH215092   2.640   3.773  11.698
 2322TIP3    H115093   2.722   3.722  11.709
 2322TIP3    H215094   2.633   3.770  11.600
 2323TIP3   OH215095   2.674   3.905  11.947
 2323TIP3    H115096   2.663   3.859  11.862
 2323TIP3    H215097   2.602   3.970  11.943
 2324TIP3   OH215098   3.505   4.355  10.087
 2324TIP3    H115099   3.481   4.398  10.002
 2324TIP3    H215100   3.513   4.263  10.059
 2325TIP3   OH215101   3.516   4.095  10.010
 2325TIP3    H115102   3.575   4.049  10.073
 2325TIP3    H215103   3.426   4.064  10.032
 2326TIP3   OH215104   3.424   4.240  10.487
 2326TIP3    H115105   3.448   4.152  10.526
 2326TIP3    H215106   3.505   4.265  10.441
 2327TIP3   OH215107   3.540   4.241  11.076
 2327TIP3    H115108   3.618   4.300  11.065
 2327TIP3    H215109   3.472   4.304  11.105
 2328TIP3   OH215110   3.446   4.388  11.330
 2328TIP3    H115111   3.354   4.369  11.352
 2328TIP3    H215112   3.438   4.475  11.287
 2329TIP3   OH215113   1.887   4.258  11.642
 2329TIP3    H115114   1.971   4.266  11.689
 2329TIP3    H215115   1.857   4.169  11.668
 2330TIP3   OH215116   3.720   3.832  11.880
 2330TIP3    H115117   3.754   3.758  11.826
 2330TIP3    H215118   3.733   3.906  11.817
 2331TIP3   OH215119   3.458   3.981  10.553
 2331TIP3    H115120   3.500   3.925  10.623
 2331TIP3    H215121   3.389   3.920  10.518
 2332TIP3   OH215122   2.056   4.080  11.052
 2332TIP3    H115123   2.097   3.992  11.035
 2332TIP3    H215124   2.134   4.132  11.075
 2333TIP3   OH215125   1.887   4.457  11.076
 2333TIP3    H115126   1.967   4.431  11.027
 2333TIP3    H215127   1.922   4.512  11.150
 2334TIP3   OH215128   3.703   4.011  11.680
 2334TIP3    H115129   3.623   4.033  11.732
 2334TIP3    H215130   3.666   3.952  11.611
 2335TIP3   OH215131   3.688   3.987  10.209
 2335TIP3    H115132   3.733   3.929  10.143
 2335TIP3    H215133   3.763   4.028  10.257
 2336TIP3   OH215134   1.944   4.057  10.529
 2336TIP3    H115135   1.848   4.049  10.521
 2336TIP3    H215136   1.965   4.091  10.439
 2337TIP3   OH215137   1.948   3.872  11.332
 2337TIP3    H115138   1.875   3.858  11.395
 2337TIP3    H215139   1.907   3.931  11.266
 2338TIP3   OH215140   3.586   3.833  11.513
 2338TIP3    H115141   3.516   3.872  11.459
 2338TIP3    H215142   3.588   3.741  11.477
 2339TIP3   OH215143   2.876   3.900  10.931
 2339TIP3    H115144   2.797   3.846  10.955
 2339TIP3    H215145   2.946   3.833  10.926
 2340TIP3   OH215146   3.432   3.800  10.950
 2340TIP3    H115147   3.499   3.844  10.894
 2340TIP3    H215148   3.360   3.787  10.884
 2341TIP3   OH215149   3.617   3.863  10.761
 2341TIP3    H115150   3.683   3.809  10.713
 2341TIP3    H215151   3.671   3.944  10.780
 2342TIP3   OH215152   2.162   3.791  10.723
 2342TIP3    H115153   2.082   3.781  10.666
 2342TIP3    H215154   2.199   3.700  10.716
 2343TIP3   OH215155   2.052   3.801  10.310
 2343TIP3    H115156   2.091   3.876  10.259
 2343TIP3    H215157   1.991   3.849  10.369
 2344TIP3   OH215158   2.576   3.767  10.703
 2344TIP3    H115159   2.671   3.781  10.687
 2344TIP3    H215160   2.555   3.840  10.763
 2345TIP3   OH215161   3.187   3.787  10.785
 2345TIP3    H115162   3.143   3.810  10.702
 2345TIP3    H215163   3.134   3.711  10.814
 2346TIP3   OH215164   3.300   3.803  10.418
 2346TIP3    H115165   3.215   3.840  10.391
 2346TIP3    H215166   3.274   3.711  10.440
 2347TIP3   OH215167   2.197   4.000  10.143
 2347TIP3    H115168   2.261   3.938  10.102
 2347TIP3    H215169   2.254   4.073  10.169
 2348TIP3   OH215170   2.723   3.979  10.425
 2348TIP3    H115171   2.771   3.933  10.497
 2348TIP3    H215172   2.741   4.072  10.453
 2349TIP3   OH215173   2.130   3.878  11.696
 2349TIP3    H115174   2.079   3.795  11.707
 2349TIP3    H215175   2.219   3.850  11.728
 2350TIP3   OH215176   2.347   3.795  11.836
 2350TIP3    H115177   2.437   3.795  11.802
 2350TIP3    H215178   2.350   3.712  11.887
 2351TIP3   OH215179   3.226   3.726  11.899
 2351TIP3    H115180   3.261   3.676  11.974
 2351TIP3    H215181   3.299   3.717  11.833
 2352TIP3   OH215182   3.813   4.466  10.589
 2352TIP3    H115183   3.777   4.550  10.557
 2352TIP3    H215184   3.797   4.413  10.510
 2353TIP3   OH215185   4.283   4.173  10.816
 2353TIP3    H115186   4.381   4.157  10.816
 2353TIP3    H215187   4.252   4.117  10.742
 2354TIP3   OH215188   3.944   4.337  10.899
 2354TIP3    H115189   3.990   4.267  10.951
 2354TIP3    H215190   3.962   4.307  10.808
 2355TIP3   OH215191   4.177   4.068  11.274
 2355TIP3    H115192   4.152   4.110  11.190
 2355TIP3    H215193   4.116   4.114  11.335
 2356TIP3   OH215194   4.159   4.241  11.056
 2356TIP3    H115195   4.219   4.298  11.109
 2356TIP3    H215196   4.209   4.233  10.972
 2357TIP3   OH215197   4.307   3.922  11.083
 2357TIP3    H115198   4.222   3.894  11.045
 2357TIP3    H215199   4.278   3.970  11.163
 2358TIP3   OH215200   4.281   4.370  11.269
 2358TIP3    H115201   4.210   4.383  11.336
 2358TIP3    H215202   4.271   4.450  11.213
 2359TIP3   OH215203   4.231   4.417  10.699
 2359TIP3    H115204   4.243   4.328  10.739
 2359TIP3    H215205   4.311   4.423  10.644
 2360TIP3   OH215206   4.093   4.404  11.448
 2360TIP3    H115207   4.079   4.454  11.530
 2360TIP3    H215208   4.038   4.325  11.464
 2361TIP3   OH215209   4.437   4.209  10.071
 2361TIP3    H115210   4.378   4.146  10.116
 2361TIP3    H215211   4.377   4.246  10.002
 2362TIP3   OH215212   3.777   4.079  10.794
 2362TIP3    H115213   3.850   4.121  10.843
 2362TIP3    H215214   3.817   4.062  10.707
 2363TIP3   OH215215   3.896   4.167  10.326
 2363TIP3    H115216   3.953   4.200  10.255
 2363TIP3    H215217   3.830   4.239  10.335
 2364TIP3   OH215218   3.998   4.215  10.661
 2364TIP3    H115219   3.966   4.265  10.584
 2364TIP3    H215220   4.050   4.143  10.620
 2365TIP3   OH215221   4.445   4.367  10.460
 2365TIP3    H115222   4.504   4.316  10.402
 2365TIP3    H215223   4.385   4.404  10.390
 2366TIP3   OH215224   4.300   4.417  10.241
 2366TIP3    H115225   4.216   4.384  10.204
 2366TIP3    H215226   4.346   4.446  10.161
 2367TIP3   OH215227   4.185   3.996  10.620
 2367TIP3    H115228   4.115   3.937  10.656
 2367TIP3    H215229   4.263   3.941  10.632
 2368TIP3   OH215230   3.992   4.150  11.464
 2368TIP3    H115231   3.900   4.127  11.440
 2368TIP3    H215232   4.018   4.071  11.515
 2369TIP3   OH215233   4.314   4.069  10.285
 2369TIP3    H115234   4.296   4.136  10.351
 2369TIP3    H215235   4.382   4.017  10.335
 2370TIP3   OH215236   4.038   4.362  10.139
 2370TIP3    H115237   3.996   4.428  10.200
 2370TIP3    H215238   3.992   4.377  10.055
 2371TIP3   OH215239   4.051   3.807  11.010
 2371TIP3    H115240   4.046   3.807  10.912
 2371TIP3    H215241   4.043   3.711  11.029
 2372TIP3   OH215242   4.407   4.242  11.603
 2372TIP3    H115243   4.414   4.175  11.531
 2372TIP3    H215244   4.385   4.319  11.548
 2373TIP3   OH215245   4.424   4.091  11.380
 2373TIP3    H115246   4.459   4.116  11.292
 2373TIP3    H215247   4.328   4.091  11.358
 2374TIP3   OH215248   4.242   4.334  11.812
 2374TIP3    H115249   4.159   4.287  11.788
 2374TIP3    H215250   4.308   4.288  11.757
 2375TIP3   OH215251   3.993   4.196  11.782
 2375TIP3    H115252   3.998   4.104  11.748
 2375TIP3    H215253   4.008   4.183  11.878
 2376TIP3   OH215254   3.766   4.302  11.643
 2376TIP3    H115255   3.859   4.286  11.669
 2376TIP3    H215256   3.727   4.221  11.676
 2377TIP3   OH215257   3.965   4.060  11.013
 2377TIP3    H115258   3.981   3.963  11.022
 2377TIP3    H215259   4.054   4.099  11.021
 2378TIP3   OH215260   3.752   4.433  11.058
 2378TIP3    H115261   3.826   4.401  11.001
 2378TIP3    H215262   3.796   4.475  11.134
 2379TIP3   OH215263   3.771   4.005  10.531
 2379TIP3    H115264   3.675   4.008  10.531
 2379TIP3    H215265   3.795   4.070  10.463
 2380TIP3   OH215266   3.822   3.836  11.336
 2380TIP3    H115267   3.738   3.835  11.387
 2380TIP3    H215268   3.799   3.896  11.260
 2381TIP3   OH215269   4.019   3.803  10.731
 2381TIP3    H115270   3.932   3.783  10.689
 2381TIP3    H215271   4.070   3.722  10.709
 2382TIP3   OH215272   3.964   3.788  10.296
 2382TIP3    H115273   4.026   3.851  10.253
 2382TIP3    H215274   3.901   3.852  10.334
 2383TIP3   OH215275   4.088   3.986  10.164
 2383TIP3    H115276   4.144   3.948  10.092
 2383TIP3    H215277   4.157   4.030  10.218
 2384TIP3   OH215278   4.033   3.892  11.673
 2384TIP3    H115279   3.959   3.831  11.685
 2384TIP3    H215280   4.110   3.833  11.691
 2385TIP3   OH215281   4.193   3.709  11.819
 2385TIP3    H115282   4.271   3.654  11.840
 2385TIP3    H215283   4.146   3.710  11.905
 2386TIP3   OH215284   0.750   1.430  11.829
 2386TIP3    H115285   0.749   1.356  11.765
 2386TIP3    H215286   0.779   1.384  11.911
 2387TIP3   OH215287   0.947   1.621  11.861
 2387TIP3    H115288   0.867   1.562  11.863
 2387TIP3    H215289   1.016   1.554  11.843
 2388TIP3   OH215290   0.554   1.082  11.855
 2388TIP3    H115291   0.594   1.018  11.915
 2388TIP3    H215292   0.627   1.098  11.793
 2389TIP3   OH215293   1.047   1.318  11.829
 2389TIP3    H115294   1.068   1.307  11.925
 2389TIP3    H215295   1.024   1.226  11.808
 2390TIP3   OH215296   1.725   1.030  11.872
 2390TIP3    H115297   1.691   0.990  11.792
 2390TIP3    H215298   1.700   1.124  11.860
 2391TIP3   OH215299   1.672   0.325  11.832
 2391TIP3    H115300   1.590   0.357  11.873
 2391TIP3    H215301   1.647   0.337  11.738
 2392TIP3   OH215302   2.631   1.438  11.832
 2392TIP3    H115303   2.621   1.372  11.761
 2392TIP3    H215304   2.630   1.384  11.912
 2393TIP3   OH215305   2.839   1.603  11.867
 2393TIP3    H115306   2.749   1.569  11.887
 2393TIP3    H215307   2.883   1.518  11.849
 2394TIP3   OH215308   2.408   1.091  11.849
 2394TIP3    H115309   2.418   1.020  11.913
 2394TIP3    H215310   2.496   1.096  11.805
 2395TIP3   OH215311   2.939   1.327  11.831
 2395TIP3    H115312   2.943   1.304  11.928
 2395TIP3    H215313   2.938   1.236  11.798
 2396TIP3   OH215314   3.664   1.002  11.870
 2396TIP3    H115315   3.613   0.960  11.799
 2396TIP3    H215316   3.616   1.088  11.876
 2397TIP3   OH215317   3.580   0.400  11.853
 2397TIP3    H115318   3.533   0.363  11.929
 2397TIP3    H215319   3.512   0.405  11.784
 2398TIP3   OH215320   4.262   1.035  11.831
 2398TIP3    H115321   4.268   1.080  11.920
 2398TIP3    H215322   4.356   1.017  11.817
 2399TIP3   OH215323   0.756   3.312  11.838
 2399TIP3    H115324   0.782   3.261  11.760
 2399TIP3    H215325   0.695   3.249  11.880
 2400TIP3   OH215326   0.944   3.490  11.875
 2400TIP3    H115327   0.857   3.445  11.867
 2400TIP3    H215328   1.000   3.412  11.862
 2401TIP3   OH215329   0.552   2.982  11.828
 2401TIP3    H115330   0.577   2.923  11.900
 2401TIP3    H215331   0.641   3.008  11.797
 2402TIP3   OH215332   1.056   3.211  11.837
 2402TIP3    H115333   1.069   3.178  11.929
 2402TIP3    H215334   1.022   3.128  11.798
 2403TIP3   OH215335   1.731   2.873  11.865
 2403TIP3    H115336   1.703   2.847  11.776
 2403TIP3    H215337   1.704   2.967  11.864
 2404TIP3   OH215338   1.583   2.169  11.830
 2404TIP3    H115339   1.582   2.244  11.890
 2404TIP3    H215340   1.543   2.203  11.748
 2405TIP3   OH215341   2.635   3.289  11.877
 2405TIP3    H115342   2.638   3.235  11.797
 2405TIP3    H215343   2.556   3.254  11.919
 2406TIP3   OH215344   2.842   3.465  11.860
 2406TIP3    H115345   2.767   3.401  11.860
 2406TIP3    H215346   2.917   3.406  11.839
 2407TIP3   OH215347   2.436   2.977  11.869
 2407TIP3    H115348   2.465   2.889  11.900
 2407TIP3    H215349   2.511   2.998  11.810
 2408TIP3   OH215350   2.945   3.198  11.849
 2408TIP3    H115351   2.964   3.181  11.944
 2408TIP3    H215352   2.932   3.105  11.824
 2409TIP3   OH215353   3.659   2.870  11.875
 2409TIP3    H115354   3.614   2.840  11.795
 2409TIP3    H215355   3.624   2.961  11.883
 2410TIP3   OH215356   3.440   2.158  11.838
 2410TIP3    H115357   3.452   2.245  11.877
 2410TIP3    H215358   3.393   2.181  11.756
 2411TIP3   OH215359   4.246   2.988  11.842
 2411TIP3    H115360   4.249   2.974  11.938
 2411TIP3    H215361   4.341   3.005  11.827
 2412TIP3   OH215362   1.573   4.060  11.823
 2412TIP3    H115363   1.590   4.131  11.886
 2412TIP3    H215364   1.521   4.108  11.754
 2413TIP3   OH215365   3.477   4.056  11.828
 2413TIP3    H115366   3.479   4.124  11.896
 2413TIP3    H215367   3.424   4.102  11.759
 2414TIP3   OH215368   1.239   0.996   1.010
 2414TIP3    H115369   1.236   1.088   1.043
 2414TIP3    H215370   1.160   0.994   0.954
 2415TIP3   OH215371   1.103   0.878   1.324
 2415TIP3    H115372   1.084   0.853   1.416
 2415TIP3    H215373   1.019   0.852   1.281
 2416TIP3   OH215374   0.315   0.844   1.468
 2416TIP3    H115375   0.288   0.783   1.539
 2416TIP3    H215376   0.401   0.877   1.499
 2417TIP3   OH215377   1.414   1.199   1.234
 2417TIP3    H115378   1.392   1.120   1.286
 2417TIP3    H215379   1.458   1.255   1.301
 2418TIP3   OH215380   0.394   1.330   1.335
 2418TIP3    H115381   0.361   1.247   1.292
 2418TIP3    H215382   0.490   1.310   1.336
 2419TIP3   OH215383   0.095   0.675   0.884
 2419TIP3    H115384   0.107   0.767   0.916
 2419TIP3    H215385   0.044   0.639   0.960
 2420TIP3   OH215386   0.087   0.868   1.104
 2420TIP3    H115387   0.132   0.799   1.159
 2420TIP3    H215388   0.156   0.936   1.096
 2421TIP3   OH215389   1.158   1.716   1.188
 2421TIP3    H115390   1.229   1.668   1.138
 2421TIP3    H215391   1.138   1.648   1.254
 2422TIP3   OH215392   0.923   1.191   1.395
 2422TIP3    H115393   0.952   1.136   1.321
 2422TIP3    H215394   1.006   1.203   1.445
 2423TIP3   OH215395   1.766   0.300   1.445
 2423TIP3    H115396   1.794   0.364   1.513
 2423TIP3    H215397   1.847   0.293   1.390
 2424TIP3   OH215398   1.270   0.613   1.467
 2424TIP3    H115399   1.284   0.519   1.485
 2424TIP3    H215400   1.277   0.614   1.369
 2425TIP3   OH215401   0.529   0.380   1.138
 2425TIP3    H115402   0.564   0.466   1.106
 2425TIP3    H215403   0.507   0.337   1.054
 2426TIP3   OH215404   1.321   0.402   1.033
 2426TIP3    H115405   1.373   0.382   1.114
 2426TIP3    H215406   1.351   0.492   1.013
 2427TIP3   OH215407   0.240   0.687   1.219
 2427TIP3    H115408   0.287   0.641   1.291
 2427TIP3    H215409   0.268   0.632   1.143
 2428TIP3   OH215410   0.682   0.828   1.169
 2428TIP3    H115411   0.770   0.793   1.188
 2428TIP3    H215412   0.640   0.746   1.134
 2429TIP3   OH215413   1.802   0.440   1.684
 2429TIP3    H115414   1.753   0.522   1.658
 2429TIP3    H215415   1.795   0.447   1.781
 2430TIP3   OH215416   0.508   0.331   1.572
 2430TIP3    H115417   0.469   0.381   1.499
 2430TIP3    H215418   0.433   0.332   1.636
 2431TIP3   OH215419   1.127   1.246   0.918
 2431TIP3    H115420   1.136   1.237   0.821
 2431TIP3    H215421   1.091   1.336   0.926
 2432TIP3   OH215422   0.678   1.110   1.534
 2432TIP3    H115423   0.612   1.180   1.553
 2432TIP3    H215424   0.743   1.160   1.481
 2433TIP3   OH215425   1.503   0.383   1.232
 2433TIP3    H115426   1.548   0.301   1.258
 2433TIP3    H215427   1.573   0.449   1.251
 2434TIP3   OH215428   0.385   0.483   1.338
 2434TIP3    H115429   0.458   0.541   1.369
 2434TIP3    H215430   0.432   0.435   1.267
 2435TIP3   OH215431   0.563   1.336   1.621
 2435TIP3    H115432   0.566   1.433   1.610
 2435TIP3    H215433   0.478   1.323   1.669
 2436TIP3   OH215434   0.127   1.237   0.655
 2436TIP3    H115435   0.119   1.284   0.570
 2436TIP3    H215436   0.152   1.306   0.719
 2437TIP3   OH215437   1.491   1.383   1.427
 2437TIP3    H115438   1.396   1.406   1.435
 2437TIP3    H215439   1.520   1.471   1.395
 2438TIP3   OH215440   1.536   0.203   1.557
 2438TIP3    H115441   1.452   0.219   1.509
 2438TIP3    H215442   1.604   0.230   1.491
 2439TIP3   OH215443   0.807   0.092   1.255
 2439TIP3    H115444   0.853   0.033   1.318
 2439TIP3    H215445   0.739   0.128   1.316
 2440TIP3   OH215446   1.344   1.581   1.052
 2440TIP3    H115447   1.377   1.504   0.999
 2440TIP3    H215448   1.424   1.638   1.054
 2441TIP3   OH215449   1.451   1.366   0.917
 2441TIP3    H115450   1.458   1.287   0.858
 2441TIP3    H215451   1.425   1.319   0.999
 2442TIP3   OH215452   1.584   1.233   1.809
 2442TIP3    H115453   1.611   1.161   1.747
 2442TIP3    H215454   1.599   1.311   1.751
 2443TIP3   OH215455   1.081   0.918   0.767
 2443TIP3    H115456   1.005   0.941   0.713
 2443TIP3    H215457   1.153   0.962   0.718
 2444TIP3   OH215458   1.100   0.804   0.462
 2444TIP3    H115459   1.183   0.816   0.514
 2444TIP3    H215460   1.118   0.717   0.423
 2445TIP3   OH215461   1.794   0.885   1.574
 2445TIP3    H115462   1.721   0.948   1.585
 2445TIP3    H215463   1.847   0.935   1.509
 2446TIP3   OH215464   1.427   0.900   0.842
 2446TIP3    H115465   1.361   0.939   0.905
 2446TIP3    H215466   1.485   0.854   0.905
 2447TIP3   OH215467   1.390   0.744   1.769
 2447TIP3    H115468   1.403   0.833   1.805
 2447TIP3    H215469   1.313   0.761   1.711
 2448TIP3   OH215470   0.546   1.012   1.020
 2448TIP3    H115471   0.499   0.974   0.942
 2448TIP3    H215472   0.586   0.933   1.064
 2449TIP3   OH215473   0.693   1.306   1.296
 2449TIP3    H115474   0.696   1.310   1.199
 2449TIP3    H215475   0.788   1.296   1.320
 2450TIP3   OH215476   0.575   0.901   1.397
 2450TIP3    H115477   0.614   0.902   1.307
 2450TIP3    H215478   0.632   0.963   1.447
 2451TIP3   OH215479   1.235   1.449   1.471
 2451TIP3    H115480   1.240   1.505   1.552
 2451TIP3    H215481   1.208   1.362   1.509
 2452TIP3   OH215482   0.690   1.332   1.857
 2452TIP3    H115483   0.619   1.390   1.894
 2452TIP3    H215484   0.659   1.322   1.764
 2453TIP3   OH215485   1.330   0.826   0.608
 2453TIP3    H115486   1.362   0.842   0.700
 2453TIP3    H215487   1.361   0.909   0.564
 2454TIP3   OH215488   0.415   0.991   1.705
 2454TIP3    H115489   0.435   1.083   1.726
 2454TIP3    H215490   0.343   0.971   1.769
 2455TIP3   OH215491   1.032   1.532   0.912
 2455TIP3    H115492   1.037   1.551   1.006
 2455TIP3    H215493   1.021   1.621   0.873
 2456TIP3   OH215494   0.512   1.529   1.950
 2456TIP3    H115495   0.499   1.558   1.858
 2456TIP3    H215496   0.421   1.508   1.981
 2457TIP3   OH215497   1.680   0.068   0.680
 2457TIP3    H115498   1.593   0.104   0.709
 2457TIP3    H215499   1.711   0.133   0.614
 2458TIP3   OH215500   0.415   0.901   0.814
 2458TIP3    H115501   0.407   0.974   0.748
 2458TIP3    H215502   0.418   0.822   0.759
 2459TIP3   OH215503   1.725   1.382   0.483
 2459TIP3    H115504   1.762   1.472   0.474
 2459TIP3    H215505   1.807   1.333   0.500
 2460TIP3   OH215506   0.112   1.149   1.729
 2460TIP3    H115507   0.040   1.129   1.665
 2460TIP3    H215508   0.148   1.057   1.735
 2461TIP3   OH215509   0.114   1.407   1.413
 2461TIP3    H115510   0.200   1.385   1.373
 2461TIP3    H215511   0.145   1.463   1.489
 2462TIP3   OH215512   1.863   1.484   1.969
 2462TIP3    H115513   1.846   1.390   1.950
 2462TIP3    H215514   1.774   1.510   2.001
 2463TIP3   OH215515   0.967   1.445   1.846
 2463TIP3    H115516   0.967   1.520   1.910
 2463TIP3    H215517   0.876   1.410   1.851
 2464TIP3   OH215518   1.021   1.796   0.792
 2464TIP3    H115519   1.009   1.828   0.701
 2464TIP3    H215520   1.016   1.882   0.840
 2465TIP3   OH215521   0.377   1.683   0.969
 2465TIP3    H115522   0.389   1.636   1.055
 2465TIP3    H215523   0.293   1.647   0.938
 2466TIP3   OH215524   1.316   1.758   0.490
 2466TIP3    H115525   1.357   1.679   0.447
 2466TIP3    H215526   1.346   1.747   0.582
 2467TIP3   OH215527   1.293   1.735   0.825
 2467TIP3    H115528   1.200   1.733   0.798
 2467TIP3    H215529   1.298   1.666   0.894
 2468TIP3   OH215530   1.540   0.633   1.977
 2468TIP3    H115531   1.492   0.672   1.901
 2468TIP3    H215532   1.562   0.544   1.942
 2469TIP3   OH215533   0.339   1.297   1.781
 2469TIP3    H115534   0.330   1.259   1.871
 2469TIP3    H215535   0.252   1.265   1.745
 2470TIP3   OH215536   0.610   0.139   1.424
 2470TIP3    H115537   0.534   0.138   1.360
 2470TIP3    H215538   0.578   0.206   1.488
 2471TIP3   OH215539   1.052   0.136   1.757
 2471TIP3    H115540   1.079   0.075   1.827
 2471TIP3    H215541   0.964   0.097   1.733
 2472TIP3   OH215542   1.351   0.402   1.819
 2472TIP3    H115543   1.292   0.398   1.897
 2472TIP3    H215544   1.349   0.497   1.802
 2473TIP3   OH215545   1.390   1.019   0.430
 2473TIP3    H115546   1.395   1.015   0.334
 2473TIP3    H215547   1.486   1.013   0.450
 2474TIP3   OH215548   0.976   0.364   0.466
 2474TIP3    H115549   0.938   0.340   0.552
 2474TIP3    H215550   0.923   0.308   0.403
 2475TIP3   OH215551   0.581   0.628   1.480
 2475TIP3    H115552   0.505   0.633   1.542
 2475TIP3    H215553   0.588   0.721   1.451
 2476TIP3   OH215554   0.585   0.615   1.042
 2476TIP3    H115555   0.495   0.615   1.002
 2476TIP3    H215556   0.634   0.596   0.959
 2477TIP3   OH215557   1.155   0.683   0.882
 2477TIP3    H115558   1.127   0.766   0.838
 2477TIP3    H215559   1.209   0.641   0.813
 2478TIP3   OH215560   1.019   0.743   2.019
 2478TIP3    H115561   0.966   0.667   2.051
 2478TIP3    H215562   1.091   0.743   2.085
 2479TIP3   OH215563   1.262   0.684   1.186
 2479TIP3    H115564   1.212   0.768   1.182
 2479TIP3    H215565   1.225   0.637   1.109
 2480TIP3   OH215566   0.331   0.617   1.613
 2480TIP3    H115567   0.348   0.658   1.699
 2480TIP3    H215568   0.301   0.528   1.640
 2481TIP3   OH215569   0.636   0.401   0.308
 2481TIP3    H115570   0.595   0.395   0.397
 2481TIP3    H215571   0.586   0.476   0.270
 2482TIP3   OH215572   0.029   0.403   1.108
 2482TIP3    H115573   0.066   0.365   1.191
 2482TIP3    H215574   0.065   0.343   1.042
 2483TIP3   OH215575   0.131   0.438   0.561
 2483TIP3    H115576   0.180   0.494   0.497
 2483TIP3    H215577   0.064   0.499   0.594
 2484TIP3   OH215578   1.123   0.809   1.585
 2484TIP3    H115579   1.187   0.750   1.540
 2484TIP3    H215580   1.080   0.749   1.650
 2485TIP3   OH215581   0.848   0.413   1.091
 2485TIP3    H115582   0.767   0.422   1.144
 2485TIP3    H215583   0.900   0.351   1.147
 2486TIP3   OH215584   0.341   0.571   0.934
 2486TIP3    H115585   0.258   0.607   0.896
 2486TIP3    H215586   0.351   0.484   0.890
 2487TIP3   OH215587   0.651   0.589   0.774
 2487TIP3    H115588   0.749   0.587   0.788
 2487TIP3    H215589   0.641   0.625   0.685
 2488TIP3   OH215590   1.292   0.251   1.444
 2488TIP3    H115591   1.211   0.252   1.496
 2488TIP3    H215592   1.269   0.205   1.361
 2489TIP3   OH215593   0.558   0.713   0.458
 2489TIP3    H115594   0.514   0.657   0.392
 2489TIP3    H215595   0.642   0.735   0.413
 2490TIP3   OH215596   1.547   1.878   2.069
 2490TIP3    H115597   1.583   1.920   1.988
 2490TIP3    H215598   1.625   1.878   2.126
 2491TIP3   OH215599   0.351   1.131   1.997
 2491TIP3    H115600   0.438   1.141   2.040
 2491TIP3    H215601   0.307   1.067   2.055
 2492TIP3   OH215602   0.920   0.671   1.299
 2492TIP3    H115603   1.000   0.622   1.277
 2492TIP3    H215604   0.884   0.617   1.372
 2493TIP3   OH215605   0.426   0.311   0.874
 2493TIP3    H115606   0.370   0.249   0.926
 2493TIP3    H215607   0.488   0.250   0.833
 2494TIP3   OH215608   0.845   0.534   1.527
 2494TIP3    H115609   0.760   0.580   1.539
 2494TIP3    H215610   0.899   0.566   1.601
 2495TIP3   OH215611   0.852   1.153   0.693
 2495TIP3    H115612   0.815   1.063   0.683
 2495TIP3    H215613   0.827   1.174   0.786
 2496TIP3   OH215614   1.612   1.088   1.593
 2496TIP3    H115615   1.656   1.146   1.525
 2496TIP3    H215616   1.528   1.070   1.549
 2497TIP3   OH215617   1.241   0.401   0.443
 2497TIP3    H115618   1.149   0.372   0.464
 2497TIP3    H215619   1.265   0.452   0.522
 2498TIP3   OH215620   0.973   1.171   1.831
 2498TIP3    H115621   0.919   1.152   1.911
 2498TIP3    H215622   1.003   1.262   1.847
 2499TIP3   OH215623   1.330   0.557   0.665
 2499TIP3    H115624   1.406   0.581   0.723
 2499TIP3    H215625   1.326   0.637   0.609
 2500TIP3   OH215626   0.382   1.076   1.246
 2500TIP3    H115627   0.434   1.051   1.167
 2500TIP3    H215628   0.410   1.011   1.313
 2501TIP3   OH215629   1.112   1.225   0.628
 2501TIP3    H115630   1.089   1.320   0.630
 2501TIP3    H215631   1.025   1.184   0.648
 2502TIP3   OH215632   0.183   0.897   1.809
 2502TIP3    H115633   0.219   0.851   1.886
 2502TIP3    H215634   0.093   0.860   1.813
 2503TIP3   OH215635   0.737   0.886   1.975
 2503TIP3    H115636   0.695   0.851   1.895
 2503TIP3    H215637   0.818   0.832   1.979
 2504TIP3   OH215638   1.271   1.389   1.851
 2504TIP3    H115639   1.193   1.415   1.799
 2504TIP3    H215640   1.248   1.436   1.934
 2505TIP3   OH215641   1.757   0.610   0.646
 2505TIP3    H115642   1.720   0.597   0.556
 2505TIP3    H215643   1.799   0.698   0.632
 2506TIP3   OH215644   1.834   1.203   1.941
 2506TIP3    H115645   1.742   1.217   1.910
 2506TIP3    H215646   1.882   1.191   1.856
 2507TIP3   OH215647   1.587   1.526   0.683
 2507TIP3    H115648   1.545   1.465   0.746
 2507TIP3    H215649   1.632   1.463   0.625
 2508TIP3   OH215650   1.364   0.984   1.403
 2508TIP3    H115651   1.280   0.952   1.363
 2508TIP3    H215652   1.427   0.924   1.358
 2509TIP3   OH215653   0.577   1.401   1.025
 2509TIP3    H115654   0.611   1.486   0.991
 2509TIP3    H215655   0.485   1.402   0.995
 2510TIP3   OH215656   0.272   0.889   0.430
 2510TIP3    H115657   0.308   0.943   0.505
 2510TIP3    H215658   0.180   0.915   0.437
 2511TIP3   OH215659   0.740   1.192   0.952
 2511TIP3    H115660   0.683   1.270   0.974
 2511TIP3    H215661   0.686   1.120   0.992
 2512TIP3   OH215662   0.834   1.601   1.640
 2512TIP3    H115663   0.897   1.664   1.600
 2512TIP3    H215664   0.889   1.561   1.711
 2513TIP3   OH215665   0.631   1.661   0.896
 2513TIP3    H115666   0.538   1.680   0.918
 2513TIP3    H215667   0.674   1.741   0.934
 2514TIP3   OH215668   1.142   1.192   1.556
 2514TIP3    H115669   1.098   1.160   1.638
 2514TIP3    H215670   1.198   1.116   1.532
 2515TIP3   OH215671   1.394   1.309   0.488
 2515TIP3    H115672   1.379   1.291   0.582
 2515TIP3    H215673   1.343   1.235   0.450
 2516TIP3   OH215674   1.455   1.645   1.796
 2516TIP3    H115675   1.365   1.610   1.784
 2516TIP3    H215676   1.459   1.714   1.727
 2517TIP3   OH215677   1.816   1.733   0.515
 2517TIP3    H115678   1.840   1.780   0.434
 2517TIP3    H215679   1.774   1.806   0.565
 2518TIP3   OH215680   0.285   0.353   1.725
 2518TIP3    H115681   0.248   0.379   1.810
 2518TIP3    H215682   0.244   0.265   1.716
 2519TIP3   OH215683   1.480   1.156   0.754
 2519TIP3    H115684   1.467   1.061   0.774
 2519TIP3    H215685   1.577   1.160   0.738
 2520TIP3   OH215686   0.239   1.556   1.592
 2520TIP3    H115687   0.307   1.491   1.617
 2520TIP3    H215688   0.225   1.608   1.672
 2521TIP3   OH215689   0.705   1.352   0.545
 2521TIP3    H115690   0.762   1.299   0.605
 2521TIP3    H215691   0.721   1.443   0.582
 2522TIP3   OH215692   0.348   1.081   0.608
 2522TIP3    H115693   0.277   1.139   0.642
 2522TIP3    H215694   0.400   1.139   0.548
 2523TIP3   OH215695   1.094   0.392   1.683
 2523TIP3    H115696   1.182   0.388   1.722
 2523TIP3    H215697   1.066   0.299   1.703
 2524TIP3   OH215698   1.258   0.327   0.786
 2524TIP3    H115699   1.282   0.410   0.738
 2524TIP3    H215700   1.291   0.350   0.876
 2525TIP3   OH215701   1.010   1.507   0.629
 2525TIP3    H115702   0.945   1.527   0.698
 2525TIP3    H215703   1.036   1.595   0.601
 2526TIP3   OH215704   0.906   0.547   0.864
 2526TIP3    H115705   0.987   0.599   0.881
 2526TIP3    H215706   0.889   0.504   0.951
 2527TIP3   OH215707   0.983   0.644   1.757
 2527TIP3    H115708   0.995   0.669   1.851
 2527TIP3    H215709   1.001   0.548   1.754
 2528TIP3   OH215710   1.023   0.241   0.892
 2528TIP3    H115711   1.025   0.276   0.983
 2528TIP3    H215712   1.101   0.285   0.853
 2529TIP3   OH215713   0.738   1.611   0.631
 2529TIP3    H115714   0.754   1.693   0.580
 2529TIP3    H215715   0.680   1.645   0.702
 2530TIP3   OH215716   0.537   0.359   0.560
 2530TIP3    H115717   0.514   0.410   0.640
 2530TIP3    H215718   0.627   0.330   0.586
 2531TIP3   OH215719   1.610   0.369   1.859
 2531TIP3    H115720   1.512   0.366   1.863
 2531TIP3    H215721   1.618   0.342   1.766
 2532TIP3   OH215722   1.496   0.796   1.238
 2532TIP3    H115723   1.413   0.747   1.218
 2532TIP3    H215724   1.550   0.726   1.282
 2533TIP3   OH215725   0.421   1.374   0.477
 2533TIP3    H115726   0.439   1.435   0.550
 2533TIP3    H215727   0.511   1.341   0.462
 2534TIP3   OH215728   0.204   0.632   0.377
 2534TIP3    H115729   0.242   0.719   0.403
 2534TIP3    H215730   0.120   0.653   0.333
 2535TIP3   OH215731   1.535   1.647   1.395
 2535TIP3    H115732   1.535   1.697   1.312
 2535TIP3    H215733   1.630   1.648   1.418
 2536TIP3   OH215734   0.378   0.111   1.294
 2536TIP3    H115735   0.365   0.155   1.208
 2536TIP3    H215736   0.325   0.030   1.278
 2537TIP3   OH215737   0.197   1.460   0.828
 2537TIP3    H115738   0.135   1.500   0.890
 2537TIP3    H215739   0.211   1.532   0.762
 2538TIP3   OH215740   0.135   1.741   2.008
 2538TIP3    H115741   0.192   1.749   2.086
 2538TIP3    H215742   0.058   1.697   2.047
 2539TIP3   OH215743   0.619   1.676   2.174
 2539TIP3    H115744   0.693   1.623   2.210
 2539TIP3    H215745   0.599   1.631   2.090
 2540TIP3   OH215746   1.217   1.529   2.072
 2540TIP3    H115747   1.186   1.445   2.112
 2540TIP3    H215748   1.303   1.537   2.119
 2541TIP3   OH215749   1.437   1.552   0.341
 2541TIP3    H115750   1.467   1.485   0.405
 2541TIP3    H215751   1.521   1.593   0.310
 2542TIP3   OH215752   0.067   1.174   2.133
 2542TIP3    H115753   0.095   1.094   2.088
 2542TIP3    H215754   0.061   1.237   2.057
 2543TIP3   OH215755   0.600   1.099   0.468
 2543TIP3    H115756   0.636   1.052   0.545
 2543TIP3    H215757   0.674   1.158   0.448
 2544TIP3   OH215758   0.773   1.144   2.027
 2544TIP3    H115759   0.739   1.202   1.953
 2544TIP3    H215760   0.747   1.053   2.000
 2545TIP3   OH215761   1.337   1.117   1.823
 2545TIP3    H115762   1.422   1.166   1.815
 2545TIP3    H215763   1.286   1.193   1.857
 2546TIP3   OH215764   0.258   0.847   2.070
 2546TIP3    H115765   0.260   0.752   2.087
 2546TIP3    H215766   0.254   0.885   2.161
 2547TIP3   OH215767   0.734   0.901   0.624
 2547TIP3    H115768   0.650   0.853   0.625
 2547TIP3    H215769   0.775   0.862   0.543
 2548TIP3   OH215770   0.545   0.764   1.731
 2548TIP3    H115771   0.481   0.835   1.708
 2548TIP3    H215772   0.628   0.811   1.707
 2549TIP3   OH215773   0.832   0.800   0.391
 2549TIP3    H115774   0.859   0.848   0.311
 2549TIP3    H215775   0.921   0.777   0.426
 2550TIP3   OH215776   1.138   1.048   2.138
 2550TIP3    H115777   1.193   0.998   2.076
 2550TIP3    H215778   1.113   0.980   2.203
 2551TIP3   OH215779   1.664   1.015   0.480
 2551TIP3    H115780   1.710   1.030   0.394
 2551TIP3    H215781   1.677   1.098   0.528
 2552TIP3   OH215782   0.674   0.563   1.857
 2552TIP3    H115783   0.710   0.496   1.795
 2552TIP3    H215784   0.639   0.631   1.795
 2553TIP3   OH215785   0.744   0.346   1.689
 2553TIP3    H115786   0.778   0.373   1.601
 2553TIP3    H215787   0.648   0.342   1.669
 2554TIP3   OH215788   0.781   0.900   1.679
 2554TIP3    H115789   0.877   0.901   1.664
 2554TIP3    H215790   0.754   0.986   1.638
 2555TIP3   OH215791   1.236   0.662   2.200
 2555TIP3    H115792   1.257   0.572   2.170
 2555TIP3    H215793   1.324   0.702   2.199
 2556TIP3   OH215794   1.413   0.960   2.032
 2556TIP3    H115795   1.378   1.005   1.952
 2556TIP3    H215796   1.507   0.948   2.008
 2557TIP3   OH215797   0.471   0.591   2.089
 2557TIP3    H115798   0.396   0.528   2.080
 2557TIP3    H215799   0.516   0.584   2.003
 2558TIP3   OH215800   0.791   0.070   1.719
 2558TIP3    H115801   0.776   0.167   1.714
 2558TIP3    H215802   0.712   0.035   1.676
 2559TIP3   OH215803   0.882   0.525   2.099
 2559TIP3    H115804   0.824   0.501   2.175
 2559TIP3    H215805   0.823   0.499   2.026
 2560TIP3   OH215806   1.189   0.403   2.021
 2560TIP3    H115807   1.098   0.398   2.055
 2560TIP3    H215808   1.240   0.367   2.096
 2561TIP3   OH215809   1.371   0.339   2.210
 2561TIP3    H115810   1.362   0.243   2.186
 2561TIP3    H215811   1.333   0.343   2.301
 2562TIP3   OH215812   0.280   0.389   2.122
 2562TIP3    H115813   0.266   0.307   2.070
 2562TIP3    H215814   0.269   0.352   2.212
 2563TIP3   OH215815   0.770   4.475   1.983
 2563TIP3    H115816   0.864   4.455   2.000
 2563TIP3    H215817   0.776   4.518   1.896
 2564TIP3   OH215818   0.793   0.187   2.263
 2564TIP3    H115819   0.832   0.133   2.192
 2564TIP3    H215820   0.748   0.260   2.215
 2565TIP3   OH215821   0.769   1.862   0.504
 2565TIP3    H115822   0.863   1.866   0.529
 2565TIP3    H215823   0.768   1.918   0.427
 2566TIP3   OH215824   0.109   1.349   0.406
 2566TIP3    H115825   0.204   1.372   0.414
 2566TIP3    H215826   0.109   1.296   0.324
 2567TIP3   OH215827   0.013   1.964   1.062
 2567TIP3    H115828  -0.003   1.897   0.994
 2567TIP3    H215829   0.026   1.907   1.140
 2568TIP3   OH215830   0.091   1.698   1.154
 2568TIP3    H115831   0.013   1.672   1.208
 2568TIP3    H215832   0.158   1.696   1.223
 2569TIP3   OH215833   1.799   1.685   1.408
 2569TIP3    H115834   1.842   1.735   1.479
 2569TIP3    H215835   1.798   1.749   1.336
 2570TIP3   OH215836   1.753   1.707   1.691
 2570TIP3    H115837   1.733   1.626   1.640
 2570TIP3    H215838   1.776   1.668   1.777
 2571TIP3   OH215839   1.678   1.251   2.279
 2571TIP3    H115840   1.591   1.270   2.322
 2571TIP3    H215841   1.734   1.325   2.311
 2572TIP3   OH215842   1.747   1.131   0.741
 2572TIP3    H115843   1.840   1.158   0.731
 2572TIP3    H215844   1.755   1.056   0.803
 2573TIP3   OH215845   1.824   0.915   0.899
 2573TIP3    H115846   1.745   0.864   0.930
 2573TIP3    H215847   1.866   0.929   0.987
 2574TIP3   OH215848   1.758   1.194   1.402
 2574TIP3    H115849   1.835   1.137   1.385
 2574TIP3    H215850   1.789   1.277   1.363
 2575TIP3   OH215851   1.637   1.459   1.648
 2575TIP3    H115852   1.567   1.515   1.686
 2575TIP3    H215853   1.591   1.416   1.572
 2576TIP3   OH215854   1.860   0.837   0.549
 2576TIP3    H115855   1.778   0.882   0.518
 2576TIP3    H215856   1.890   0.898   0.618
 2577TIP3   OH215857   1.679   0.586   0.379
 2577TIP3    H115858   1.714   0.655   0.320
 2577TIP3    H215859   1.665   0.514   0.316
 2578TIP3   OH215860   1.615   0.771   1.002
 2578TIP3    H115861   1.568   0.687   0.985
 2578TIP3    H215862   1.587   0.791   1.094
 2579TIP3   OH215863   0.117   1.005   1.387
 2579TIP3    H115864   0.112   0.970   1.297
 2579TIP3    H215865   0.197   0.959   1.422
 2580TIP3   OH215866   1.704   0.953   1.963
 2580TIP3    H115867   1.751   0.869   1.985
 2580TIP3    H215868   1.777   1.016   1.946
 2581TIP3   OH215869   1.791   0.715   2.027
 2581TIP3    H115870   1.699   0.686   2.007
 2581TIP3    H215871   1.842   0.631   2.020
 2582TIP3   OH215872   1.524   0.566   0.854
 2582TIP3    H115873   1.559   0.475   0.868
 2582TIP3    H215874   1.598   0.602   0.800
 2583TIP3   OH215875   1.642   0.608   1.362
 2583TIP3    H115876   1.741   0.614   1.366
 2583TIP3    H215877   1.623   0.592   1.455
 2584TIP3   OH215878   1.638   0.654   1.653
 2584TIP3    H115879   1.543   0.679   1.658
 2584TIP3    H215880   1.680   0.739   1.626
 2585TIP3   OH215881   0.096   0.562   2.017
 2585TIP3    H115882   0.142   0.490   2.067
 2585TIP3    H215883   0.006   0.529   2.007
 2586TIP3   OH215884   1.888   0.038   2.171
 2586TIP3    H115885   1.895  -0.019   2.091
 2586TIP3    H215886   1.862   0.122   2.128
 2587TIP3   OH215887   1.637   0.326   0.883
 2587TIP3    H115888   1.676   0.273   0.956
 2587TIP3    H215889   1.588   0.255   0.838
 2588TIP3   OH215890   0.164   0.281   1.308
 2588TIP3    H115891   0.237   0.221   1.334
 2588TIP3    H215892   0.200   0.369   1.329
 2589TIP3   OH215893   0.038   0.637   1.425
 2589TIP3    H115894   0.115   0.646   1.366
 2589TIP3    H215895   0.004   0.728   1.427
 2590TIP3   OH215896   1.825   0.255   2.017
 2590TIP3    H115897   1.741   0.300   2.043
 2590TIP3    H215898   1.793   0.204   1.940
 2591TIP3   OH215899   1.818   0.236   0.525
 2591TIP3    H115900   1.863   0.195   0.450
 2591TIP3    H215901   1.881   0.306   0.551
 2592TIP3   OH215902   0.016   0.275   0.844
 2592TIP3    H115903  -0.046   0.347   0.824
 2592TIP3    H215904   0.083   0.291   0.777
 2593TIP3   OH215905   1.547   1.748   1.055
 2593TIP3    H115906   1.612   1.752   0.982
 2593TIP3    H215907   1.562   1.829   1.106
 2594TIP3   OH215908   0.059   0.085   1.655
 2594TIP3    H115909  -0.023   0.033   1.651
 2594TIP3    H215910   0.025   0.175   1.640
 2595TIP3   OH215911   0.249   1.447   2.042
 2595TIP3    H115912   0.191   1.411   1.973
 2595TIP3    H215913   0.195   1.520   2.076
 2596TIP3   OH215914   0.572   1.597   1.688
 2596TIP3    H115915   0.553   1.686   1.652
 2596TIP3    H215916   0.671   1.598   1.688
 2597TIP3   OH215917   0.946   1.713   1.942
 2597TIP3    H115918   0.956   1.692   2.036
 2597TIP3    H215919   1.035   1.749   1.922
 2598TIP3   OH215920   1.176   1.857   1.896
 2598TIP3    H115921   1.252   1.821   1.847
 2598TIP3    H215922   1.214   1.876   1.984
 2599TIP3   OH215923   1.726   0.066   1.819
 2599TIP3    H115924   1.671   0.130   1.773
 2599TIP3    H215925   1.700  -0.014   1.770
 2600TIP3   OH215926   0.314   1.892   1.705
 2600TIP3    H115927   0.234   1.950   1.698
 2600TIP3    H215928   0.329   1.893   1.801
 2601TIP3   OH215929   0.516   1.822   1.558
 2601TIP3    H115930   0.428   1.848   1.596
 2601TIP3    H215931   0.522   1.883   1.482
 2602TIP3   OH215932   0.982   1.787   1.508
 2602TIP3    H115933   0.908   1.840   1.472
 2602TIP3    H215934   1.020   1.854   1.569
 2603TIP3   OH215935   1.200   1.668   1.633
 2603TIP3    H115936   1.128   1.694   1.572
 2603TIP3    H215937   1.268   1.734   1.606
 2604TIP3   OH215938   1.418   1.831   1.591
 2604TIP3    H115939   1.424   1.928   1.578
 2604TIP3    H215940   1.469   1.800   1.514
 2605TIP3   OH215941   0.282   1.733   1.379
 2605TIP3    H115942   0.306   1.711   1.471
 2605TIP3    H215943   0.344   1.675   1.330
 2606TIP3   OH215944   0.421   1.567   1.212
 2606TIP3    H115945   0.406   1.476   1.247
 2606TIP3    H215946   0.509   1.583   1.253
 2607TIP3   OH215947   0.665   1.612   1.376
 2607TIP3    H115948   0.727   1.539   1.357
 2607TIP3    H215949   0.681   1.624   1.471
 2608TIP3   OH215950   1.027   0.228   1.182
 2608TIP3    H115951   0.963   0.165   1.219
 2608TIP3    H215952   1.110   0.178   1.186
 2609TIP3   OH215953   1.541   0.060   1.256
 2609TIP3    H115954   1.602   0.092   1.187
 2609TIP3    H215955   1.454   0.075   1.215
 2610TIP3   OH215956   1.744   0.167   1.082
 2610TIP3    H115957   1.805   0.097   1.058
 2610TIP3    H215958   1.805   0.242   1.101
 2611TIP3   OH215959   0.312   0.124   1.038
 2611TIP3    H115960   0.219   0.092   1.022
 2611TIP3    H215961   0.349   0.037   1.061
 2612TIP3   OH215962   0.152   0.073   0.577
 2612TIP3    H115963   0.218   0.120   0.520
 2612TIP3    H215964   0.118   0.147   0.629
 2613TIP3   OH215965   0.766   0.045   0.982
 2613TIP3    H115966   0.824   0.117   0.952
 2613TIP3    H215967   0.765   0.062   1.078
 2614TIP3   OH215968   1.289   0.097   1.143
 2614TIP3    H115969   1.303   0.113   1.049
 2614TIP3    H215970   1.234   0.017   1.139
 2615TIP3   OH215971   1.446   0.134   0.781
 2615TIP3    H115972   1.368   0.187   0.753
 2615TIP3    H215973   1.405   0.053   0.818
 2616TIP3   OH215974   0.205   1.667   0.650
 2616TIP3    H115975   0.111   1.656   0.625
 2616TIP3    H215976   0.219   1.763   0.630
 2617TIP3   OH215977   0.343   0.200   0.437
 2617TIP3    H115978   0.407   0.155   0.377
 2617TIP3    H215979   0.406   0.257   0.489
 2618TIP3   OH215980   0.838   0.321   0.702
 2618TIP3    H115981   0.895   0.271   0.765
 2618TIP3    H215982   0.855   0.411   0.735
 2619TIP3   OH215983   1.050   1.800   0.507
 2619TIP3    H115984   1.147   1.799   0.493
 2619TIP3    H215985   1.025   1.741   0.433
 2620TIP3   OH215986   1.690   1.723   0.821
 2620TIP3    H115987   1.654   1.648   0.769
 2620TIP3    H215988   1.692   1.793   0.752
 2621TIP3   OH215989   0.261   0.154   1.987
 2621TIP3    H115990   0.213   0.069   1.990
 2621TIP3    H215991   0.343   0.138   2.037
 2622TIP3   OH215992   0.486   0.088   2.170
 2622TIP3    H115993   0.580   0.110   2.173
 2622TIP3    H215994   0.492  -0.008   2.148
 2623TIP3   OH215995   0.342   1.721   0.373
 2623TIP3    H115996   0.307   1.702   0.461
 2623TIP3    H215997   0.437   1.711   0.387
 2624TIP3   OH215998   1.364   0.082   2.120
 2624TIP3    H115999   1.316   0.013   2.170
 2624TIP3    H216000   1.441   0.030   2.089
 2625TIP3   OH216001   1.623   1.607   2.005
 2625TIP3    H116002   1.556   1.595   1.934
 2625TIP3    H216003   1.610   1.702   2.024
 2626TIP3   OH216004   3.110   1.000   1.025
 2626TIP3    H116005   3.098   1.092   1.057
 2626TIP3    H216006   3.032   0.989   0.969
 2627TIP3   OH216007   2.977   0.890   1.333
 2627TIP3    H116008   2.970   0.863   1.426
 2627TIP3    H216009   2.904   0.839   1.293
 2628TIP3   OH216010   2.164   0.876   1.488
 2628TIP3    H116011   2.160   0.794   1.540
 2628TIP3    H216012   2.217   0.930   1.551
 2629TIP3   OH216013   3.291   1.201   1.235
 2629TIP3    H116014   3.273   1.122   1.289
 2629TIP3    H216015   3.333   1.258   1.301
 2630TIP3   OH216016   2.290   1.350   1.322
 2630TIP3    H116017   2.258   1.260   1.302
 2630TIP3    H216018   2.385   1.328   1.323
 2631TIP3   OH216019   1.954   0.660   0.878
 2631TIP3    H116020   1.931   0.754   0.876
 2631TIP3    H216021   1.865   0.622   0.872
 2632TIP3   OH216022   1.951   0.890   1.140
 2632TIP3    H116023   1.996   0.804   1.159
 2632TIP3    H216024   2.024   0.940   1.100
 2633TIP3   OH216025   3.006   1.733   1.186
 2633TIP3    H116026   3.071   1.675   1.139
 2633TIP3    H216027   2.995   1.681   1.267
 2634TIP3   OH216028   2.769   1.211   1.444
 2634TIP3    H116029   2.815   1.180   1.365
 2634TIP3    H216030   2.849   1.217   1.503
 2635TIP3   OH216031   3.643   0.313   1.463
 2635TIP3    H116032   3.664   0.377   1.535
 2635TIP3    H216033   3.724   0.317   1.409
 2636TIP3   OH216034   3.157   0.625   1.479
 2636TIP3    H116035   3.184   0.535   1.504
 2636TIP3    H216036   3.154   0.618   1.381
 2637TIP3   OH216037   2.405   0.382   1.121
 2637TIP3    H116038   2.430   0.474   1.094
 2637TIP3    H216039   2.363   0.351   1.039
 2638TIP3   OH216040   3.194   0.395   1.044
 2638TIP3    H116041   3.245   0.374   1.126
 2638TIP3    H216042   3.258   0.453   1.001
 2639TIP3   OH216043   2.080   0.664   1.211
 2639TIP3    H116044   2.147   0.646   1.279
 2639TIP3    H216045   2.118   0.616   1.133
 2640TIP3   OH216046   2.547   0.829   1.173
 2640TIP3    H116047   2.623   0.787   1.216
 2640TIP3    H216048   2.509   0.749   1.128
 2641TIP3   OH216049   3.681   0.442   1.704
 2641TIP3    H116050   3.633   0.525   1.681
 2641TIP3    H216051   3.697   0.457   1.799
 2642TIP3   OH216052   2.356   0.310   1.543
 2642TIP3    H116053   2.301   0.347   1.471
 2642TIP3    H216054   2.301   0.340   1.619
 2643TIP3   OH216055   3.004   1.246   0.936
 2643TIP3    H116056   3.010   1.238   0.840
 2643TIP3    H216057   2.944   1.322   0.944
 2644TIP3   OH216058   2.536   1.101   1.527
 2644TIP3    H116059   2.476   1.173   1.557
 2644TIP3    H216060   2.614   1.152   1.494
 2645TIP3   OH216061   3.378   0.362   1.236
 2645TIP3    H116062   3.397   0.281   1.287
 2645TIP3    H216063   3.462   0.408   1.248
 2646TIP3   OH216064   2.278   0.505   1.332
 2646TIP3    H116065   2.352   0.548   1.380
 2646TIP3    H216066   2.325   0.468   1.255
 2647TIP3   OH216067   2.409   1.306   1.655
 2647TIP3    H116068   2.396   1.396   1.623
 2647TIP3    H216069   2.319   1.288   1.693
 2648TIP3   OH216070   1.998   1.228   0.687
 2648TIP3    H116071   2.001   1.277   0.603
 2648TIP3    H216072   2.011   1.299   0.754
 2649TIP3   OH216073   3.349   1.366   1.465
 2649TIP3    H116074   3.251   1.382   1.470
 2649TIP3    H216075   3.374   1.452   1.425
 2650TIP3   OH216076   3.423   0.149   1.541
 2650TIP3    H116077   3.340   0.179   1.497
 2650TIP3    H216078   3.493   0.196   1.490
 2651TIP3   OH216079   2.678   0.080   1.262
 2651TIP3    H116080   2.733   0.022   1.320
 2651TIP3    H216081   2.594   0.089   1.316
 2652TIP3   OH216082   3.196   1.596   1.053
 2652TIP3    H116083   3.222   1.509   1.016
 2652TIP3    H216084   3.282   1.645   1.046
 2653TIP3   OH216085   3.299   1.359   0.917
 2653TIP3    H116086   3.314   1.284   0.854
 2653TIP3    H216087   3.289   1.308   0.999
 2654TIP3   OH216088   3.475   1.220   1.806
 2654TIP3    H116089   3.509   1.152   1.744
 2654TIP3    H216090   3.485   1.300   1.750
 2655TIP3   OH216091   2.929   0.913   0.763
 2655TIP3    H116092   2.866   0.963   0.708
 2655TIP3    H216093   3.013   0.937   0.722
 2656TIP3   OH216094   2.976   0.801   0.474
 2656TIP3    H116095   3.055   0.823   0.527
 2656TIP3    H216096   3.022   0.743   0.410
 2657TIP3   OH216097   3.690   0.883   1.573
 2657TIP3    H116098   3.621   0.954   1.571
 2657TIP3    H216099   3.741   0.905   1.492
 2658TIP3   OH216100   3.294   0.897   0.858
 2658TIP3    H116101   3.231   0.934   0.924
 2658TIP3    H216102   3.356   0.845   0.914
 2659TIP3   OH216103   3.289   0.750   1.770
 2659TIP3    H116104   3.278   0.836   1.814
 2659TIP3    H216105   3.218   0.756   1.703
 2660TIP3   OH216106   2.410   1.016   1.047
 2660TIP3    H116107   2.371   0.984   0.962
 2660TIP3    H216108   2.468   0.941   1.075
 2661TIP3   OH216109   2.561   1.321   1.314
 2661TIP3    H116110   2.583   1.297   1.223
 2661TIP3    H216111   2.638   1.285   1.364
 2662TIP3   OH216112   2.451   0.872   1.419
 2662TIP3    H116113   2.481   0.880   1.326
 2662TIP3    H216114   2.494   0.950   1.462
 2663TIP3   OH216115   3.094   1.447   1.482
 2663TIP3    H116116   3.087   1.520   1.545
 2663TIP3    H216117   3.046   1.376   1.529
 2664TIP3   OH216118   2.588   1.333   1.851
 2664TIP3    H116119   2.523   1.385   1.904
 2664TIP3    H216120   2.531   1.313   1.774
 2665TIP3   OH216121   3.198   0.827   0.628
 2665TIP3    H116122   3.233   0.847   0.718
 2665TIP3    H216123   3.228   0.906   0.577
 2666TIP3   OH216124   2.249   0.957   1.726
 2666TIP3    H116125   2.285   1.031   1.778
 2666TIP3    H216126   2.181   0.923   1.787
 2667TIP3   OH216127   2.849   1.482   0.915
 2667TIP3    H116128   2.903   1.522   0.985
 2667TIP3    H216129   2.762   1.523   0.930
 2668TIP3   OH216130   2.394   1.488   1.963
 2668TIP3    H116131   2.375   1.534   1.878
 2668TIP3    H216132   2.304   1.461   1.989
 2669TIP3   OH216133   3.550   0.074   0.667
 2669TIP3    H116134   3.470   0.112   0.708
 2669TIP3    H216135   3.573   0.138   0.596
 2670TIP3   OH216136   2.300   0.895   0.828
 2670TIP3    H116137   2.266   0.965   0.769
 2670TIP3    H216138   2.295   0.817   0.771
 2671TIP3   OH216139   3.649   1.417   0.434
 2671TIP3    H116140   3.685   1.507   0.445
 2671TIP3    H216141   3.728   1.363   0.456
 2672TIP3   OH216142   1.967   1.152   1.706
 2672TIP3    H116143   1.919   1.170   1.623
 2672TIP3    H216144   2.000   1.062   1.687
 2673TIP3   OH216145   1.968   1.402   1.380
 2673TIP3    H116146   2.056   1.362   1.374
 2673TIP3    H216147   1.983   1.486   1.426
 2674TIP3   OH216148   3.741   1.485   1.961
 2674TIP3    H116149   3.725   1.393   1.939
 2674TIP3    H216150   3.648   1.510   1.984
 2675TIP3   OH216151   2.848   1.432   1.831
 2675TIP3    H116152   2.840   1.512   1.886
 2675TIP3    H216153   2.756   1.397   1.829
 2676TIP3   OH216154   2.900   1.816   0.779
 2676TIP3    H116155   2.872   1.848   0.691
 2676TIP3    H216156   2.896   1.900   0.830
 2677TIP3   OH216157   2.255   1.660   1.015
 2677TIP3    H116158   2.290   1.637   1.104
 2677TIP3    H216159   2.174   1.607   1.013
 2678TIP3   OH216160   3.175   1.756   0.486
 2678TIP3    H116161   3.218   1.677   0.444
 2678TIP3    H216162   3.197   1.743   0.579
 2679TIP3   OH216163   3.167   1.751   0.822
 2679TIP3    H116164   3.070   1.752   0.808
 2679TIP3    H216165   3.179   1.677   0.886
 2680TIP3   OH216166   3.430   0.649   1.985
 2680TIP3    H116167   3.393   0.696   1.907
 2680TIP3    H216168   3.429   0.557   1.955
 2681TIP3   OH216169   2.180   1.294   1.782
 2681TIP3    H116170   2.183   1.271   1.877
 2681TIP3    H216171   2.099   1.246   1.755
 2682TIP3   OH216172   2.472   0.103   1.426
 2682TIP3    H116173   2.396   0.110   1.363
 2682TIP3    H216174   2.447   0.175   1.487
 2683TIP3   OH216175   2.915   0.168   1.776
 2683TIP3    H116176   2.941   0.110   1.850
 2683TIP3    H216177   2.837   0.119   1.741
 2684TIP3   OH216178   3.236   0.409   1.821
 2684TIP3    H116179   3.183   0.396   1.903
 2684TIP3    H216180   3.240   0.506   1.817
 2685TIP3   OH216181   3.267   1.021   0.446
 2685TIP3    H116182   3.274   1.025   0.349
 2685TIP3    H216183   3.361   1.012   0.470
 2686TIP3   OH216184   2.842   0.367   0.480
 2686TIP3    H116185   2.795   0.334   0.559
 2686TIP3    H216186   2.793   0.325   0.407
 2687TIP3   OH216187   2.465   0.620   1.498
 2687TIP3    H116188   2.383   0.608   1.550
 2687TIP3    H216189   2.459   0.717   1.479
 2688TIP3   OH216190   2.454   0.624   1.033
 2688TIP3    H116191   2.379   0.674   0.996
 2688TIP3    H216192   2.506   0.611   0.950
 2689TIP3   OH216193   3.033   0.702   0.897
 2689TIP3    H116194   2.996   0.774   0.840
 2689TIP3    H216195   3.096   0.658   0.838
 2690TIP3   OH216196   2.898   0.735   2.028
 2690TIP3    H116197   2.847   0.657   2.063
 2690TIP3    H216198   2.975   0.735   2.089
 2691TIP3   OH216199   3.124   0.669   1.202
 2691TIP3    H116200   3.076   0.743   1.161
 2691TIP3    H216201   3.116   0.603   1.132
 2692TIP3   OH216202   2.210   0.609   1.617
 2692TIP3    H116203   2.245   0.668   1.687
 2692TIP3    H216204   2.174   0.534   1.668
 2693TIP3   OH216205   2.486   0.369   0.305
 2693TIP3    H116206   2.450   0.384   0.394
 2693TIP3    H216207   2.440   0.437   0.251
 2694TIP3   OH216208   1.913   0.375   1.099
 2694TIP3    H116209   1.978   0.363   1.169
 2694TIP3    H216210   1.966   0.379   1.019
 2695TIP3   OH216211   1.984   0.432   0.616
 2695TIP3    H116212   2.046   0.476   0.554
 2695TIP3    H216213   1.918   0.503   0.631
 2696TIP3   OH216214   3.003   0.815   1.597
 2696TIP3    H116215   3.069   0.759   1.551
 2696TIP3    H216216   2.957   0.750   1.655
 2697TIP3   OH216217   2.727   0.407   1.083
 2697TIP3    H116218   2.639   0.369   1.077
 2697TIP3    H216219   2.763   0.359   1.160
 2698TIP3   OH216220   2.180   0.564   0.977
 2698TIP3    H116221   2.103   0.601   0.928
 2698TIP3    H216222   2.201   0.485   0.924
 2699TIP3   OH216223   2.538   0.591   0.780
 2699TIP3    H116224   2.636   0.583   0.783
 2699TIP3    H216225   2.519   0.627   0.692
 2700TIP3   OH216226   3.179   0.260   1.441
 2700TIP3    H116227   3.098   0.283   1.488
 2700TIP3    H216228   3.156   0.255   1.347
 2701TIP3   OH216229   2.444   0.731   0.465
 2701TIP3    H116230   2.405   0.672   0.399
 2701TIP3    H216231   2.530   0.752   0.422
 2702TIP3   OH216232   3.426   1.883   2.076
 2702TIP3    H116233   3.454   1.926   1.993
 2702TIP3    H216234   3.509   1.884   2.125
 2703TIP3   OH216235   2.209   1.140   2.025
 2703TIP3    H116236   2.285   1.129   2.085
 2703TIP3    H216237   2.138   1.106   2.082
 2704TIP3   OH216238   2.818   0.662   1.307
 2704TIP3    H116239   2.898   0.609   1.290
 2704TIP3    H216240   2.771   0.601   1.368
 2705TIP3   OH216241   2.290   0.302   0.890
 2705TIP3    H116242   2.229   0.237   0.931
 2705TIP3    H216243   2.363   0.242   0.870
 2706TIP3   OH216244   2.727   0.535   1.536
 2706TIP3    H116245   2.640   0.580   1.535
 2706TIP3    H216246   2.776   0.585   1.604
 2707TIP3   OH216247   2.737   1.159   0.709
 2707TIP3    H116248   2.690   1.075   0.691
 2707TIP3    H216249   2.711   1.176   0.803
 2708TIP3   OH216250   3.518   1.084   1.581
 2708TIP3    H116251   3.555   1.142   1.510
 2708TIP3    H216252   3.426   1.078   1.551
 2709TIP3   OH216253   3.103   0.414   0.471
 2709TIP3    H116254   3.006   0.404   0.488
 2709TIP3    H216255   3.135   0.461   0.551
 2710TIP3   OH216256   2.886   1.163   1.859
 2710TIP3    H116257   2.827   1.145   1.934
 2710TIP3    H216258   2.899   1.259   1.869
 2711TIP3   OH216259   3.203   0.563   0.698
 2711TIP3    H116260   3.289   0.575   0.745
 2711TIP3    H216261   3.198   0.650   0.652
 2712TIP3   OH216262   2.273   1.088   1.275
 2712TIP3    H116263   2.319   1.061   1.192
 2712TIP3    H216264   2.278   1.009   1.330
 2713TIP3   OH216265   2.976   1.238   0.633
 2713TIP3    H116266   2.961   1.333   0.649
 2713TIP3    H216267   2.889   1.199   0.662
 2714TIP3   OH216268   1.980   0.854   1.789
 2714TIP3    H116269   1.950   0.813   1.873
 2714TIP3    H216270   1.907   0.836   1.726
 2715TIP3   OH216271   2.668   0.859   1.977
 2715TIP3    H116272   2.637   0.784   1.925
 2715TIP3    H216273   2.763   0.836   1.982
 2716TIP3   OH216274   3.151   1.391   1.870
 2716TIP3    H116275   3.075   1.420   1.818
 2716TIP3    H216276   3.127   1.431   1.957
 2717TIP3   OH216277   3.621   0.624   0.691
 2717TIP3    H116278   3.593   0.598   0.601
 2717TIP3    H216279   3.671   0.705   0.667
 2718TIP3   OH216280   3.713   1.184   1.934
 2718TIP3    H116281   3.618   1.203   1.913
 2718TIP3    H216282   3.755   1.183   1.845
 2719TIP3   OH216283   3.513   1.486   0.725
 2719TIP3    H116284   3.451   1.421   0.763
 2719TIP3    H216285   3.527   1.453   0.635
 2720TIP3   OH216286   3.243   0.977   1.416
 2720TIP3    H116287   3.153   0.961   1.382
 2720TIP3    H216288   3.293   0.910   1.365
 2721TIP3   OH216289   2.492   1.416   1.006
 2721TIP3    H116290   2.495   1.511   0.983
 2721TIP3    H216291   2.398   1.396   0.993
 2722TIP3   OH216292   2.049   0.929   0.352
 2722TIP3    H116293   2.092   0.962   0.433
 2722TIP3    H216294   1.970   0.887   0.391
 2723TIP3   OH216295   2.626   1.182   0.963
 2723TIP3    H116296   2.579   1.267   0.974
 2723TIP3    H216297   2.569   1.120   1.011
 2724TIP3   OH216298   2.685   1.610   1.669
 2724TIP3    H116299   2.747   1.673   1.626
 2724TIP3    H216300   2.744   1.569   1.734
 2725TIP3   OH216301   2.489   1.676   0.886
 2725TIP3    H116302   2.402   1.691   0.928
 2725TIP3    H216303   2.540   1.750   0.926
 2726TIP3   OH216304   2.994   1.193   1.581
 2726TIP3    H116305   2.971   1.165   1.672
 2726TIP3    H216306   3.050   1.120   1.551
 2727TIP3   OH216307   3.279   1.318   0.506
 2727TIP3    H116308   3.270   1.289   0.598
 2727TIP3    H216309   3.221   1.252   0.466
 2728TIP3   OH216310   3.334   1.632   1.805
 2728TIP3    H116311   3.244   1.597   1.794
 2728TIP3    H216312   3.334   1.705   1.740
 2729TIP3   OH216313   3.731   1.729   0.517
 2729TIP3    H116314   3.785   1.792   0.467
 2729TIP3    H216315   3.660   1.788   0.553
 2730TIP3   OH216316   2.182   0.353   1.752
 2730TIP3    H116317   2.128   0.394   1.822
 2730TIP3    H216318   2.174   0.259   1.774
 2731TIP3   OH216319   3.357   1.154   0.752
 2731TIP3    H116320   3.347   1.063   0.784
 2731TIP3    H216321   3.452   1.153   0.726
 2732TIP3   OH216322   2.091   1.556   1.603
 2732TIP3    H116323   2.152   1.482   1.616
 2732TIP3    H216324   2.103   1.603   1.688
 2733TIP3   OH216325   2.569   1.362   0.583
 2733TIP3    H116326   2.646   1.325   0.631
 2733TIP3    H216327   2.573   1.456   0.616
 2734TIP3   OH216328   2.213   1.065   0.628
 2734TIP3    H116329   2.144   1.131   0.649
 2734TIP3    H216330   2.282   1.122   0.589
 2735TIP3   OH216331   2.989   0.400   1.672
 2735TIP3    H116332   3.078   0.406   1.711
 2735TIP3    H216333   2.962   0.311   1.705
 2736TIP3   OH216334   3.134   0.321   0.797
 2736TIP3    H116335   3.150   0.409   0.755
 2736TIP3    H216336   3.167   0.338   0.887
 2737TIP3   OH216337   2.922   1.525   0.629
 2737TIP3    H116338   2.865   1.532   0.708
 2737TIP3    H216339   2.909   1.614   0.591
 2738TIP3   OH216340   2.797   0.561   0.865
 2738TIP3    H116341   2.875   0.620   0.878
 2738TIP3    H216342   2.788   0.521   0.954
 2739TIP3   OH216343   2.878   0.637   1.767
 2739TIP3    H116344   2.886   0.659   1.863
 2739TIP3    H216345   2.910   0.544   1.759
 2740TIP3   OH216346   2.887   0.248   0.910
 2740TIP3    H116347   2.866   0.284   0.997
 2740TIP3    H216348   2.973   0.291   0.893
 2741TIP3   OH216349   2.609   1.610   0.654
 2741TIP3    H116350   2.611   1.690   0.598
 2741TIP3    H216351   2.554   1.641   0.730
 2742TIP3   OH216352   2.404   0.358   0.572
 2742TIP3    H116353   2.396   0.410   0.654
 2742TIP3    H216354   2.484   0.307   0.594
 2743TIP3   OH216355   3.483   0.340   1.872
 2743TIP3    H116356   3.388   0.350   1.851
 2743TIP3    H216357   3.522   0.338   1.783
 2744TIP3   OH216358   3.363   0.794   1.239
 2744TIP3    H116359   3.284   0.736   1.240
 2744TIP3    H216360   3.427   0.740   1.290
 2745TIP3   OH216361   2.259   1.328   0.514
 2745TIP3    H116362   2.286   1.401   0.572
 2745TIP3    H216363   2.344   1.301   0.476
 2746TIP3   OH216364   2.124   0.639   0.423
 2746TIP3    H116365   2.161   0.729   0.420
 2746TIP3    H216366   2.047   0.646   0.362
 2747TIP3   OH216367   3.389   1.642   1.402
 2747TIP3    H116368   3.386   1.681   1.313
 2747TIP3    H216369   3.485   1.653   1.422
 2748TIP3   OH216370   2.253   0.101   1.285
 2748TIP3    H116371   2.249   0.133   1.193
 2748TIP3    H216372   2.186   0.029   1.281
 2749TIP3   OH216373   2.045   1.453   0.858
 2749TIP3    H116374   1.984   1.511   0.907
 2749TIP3    H216375   2.086   1.519   0.798
 2750TIP3   OH216376   1.977   1.774   2.062
 2750TIP3    H116377   2.039   1.759   2.138
 2750TIP3    H216378   1.952   1.681   2.046
 2751TIP3   OH216379   2.479   1.660   2.157
 2751TIP3    H116380   2.559   1.617   2.191
 2751TIP3    H216381   2.454   1.601   2.083
 2752TIP3   OH216382   3.101   1.527   2.092
 2752TIP3    H116383   3.068   1.441   2.128
 2752TIP3    H216384   3.187   1.532   2.137
 2753TIP3   OH216385   3.304   1.559   0.346
 2753TIP3    H116386   3.331   1.480   0.396
 2753TIP3    H216387   3.373   1.565   0.275
 2754TIP3   OH216388   1.963   1.145   2.184
 2754TIP3    H116389   1.899   1.080   2.217
 2754TIP3    H216390   1.923   1.178   2.101
 2755TIP3   OH216391   2.470   1.124   0.501
 2755TIP3    H116392   2.525   1.055   0.545
 2755TIP3    H216393   2.507   1.206   0.541
 2756TIP3   OH216394   2.655   1.130   2.028
 2756TIP3    H116395   2.624   1.192   1.958
 2756TIP3    H216396   2.643   1.041   1.988
 2757TIP3   OH216397   3.220   1.125   1.826
 2757TIP3    H116398   3.307   1.170   1.820
 2757TIP3    H216399   3.163   1.202   1.846
 2758TIP3   OH216400   2.121   0.822   2.090
 2758TIP3    H116401   2.166   0.741   2.118
 2758TIP3    H216402   2.150   0.883   2.162
 2759TIP3   OH216403   2.605   0.922   0.627
 2759TIP3    H116404   2.518   0.881   0.638
 2759TIP3    H216405   2.639   0.870   0.551
 2760TIP3   OH216406   2.431   0.762   1.754
 2760TIP3    H116407   2.377   0.825   1.802
 2760TIP3    H216408   2.506   0.819   1.724
 2761TIP3   OH216409   2.708   0.813   0.398
 2761TIP3    H116410   2.738   0.837   0.309
 2761TIP3    H216411   2.796   0.796   0.440
 2762TIP3   OH216412   3.019   1.048   2.157
 2762TIP3    H116413   3.077   1.016   2.086
 2762TIP3    H216414   2.972   0.967   2.181
 2763TIP3   OH216415   3.548   0.978   0.440
 2763TIP3    H116416   3.583   0.935   0.361
 2763TIP3    H216417   3.564   1.071   0.420
 2764TIP3   OH216418   2.541   0.544   1.851
 2764TIP3    H116419   2.585   0.490   1.783
 2764TIP3    H216420   2.514   0.624   1.799
 2765TIP3   OH216421   2.605   0.334   1.667
 2765TIP3    H116422   2.663   0.379   1.603
 2765TIP3    H216423   2.518   0.343   1.622
 2766TIP3   OH216424   2.669   0.909   1.690
 2766TIP3    H116425   2.764   0.924   1.672
 2766TIP3    H216426   2.627   0.985   1.646
 2767TIP3   OH216427   3.105   0.676   2.194
 2767TIP3    H116428   3.127   0.589   2.159
 2767TIP3    H216429   3.192   0.719   2.200
 2768TIP3   OH216430   3.301   0.964   2.040
 2768TIP3    H116431   3.265   1.008   1.960
 2768TIP3    H216432   3.393   0.950   2.013
 2769TIP3   OH216433   2.375   0.567   2.086
 2769TIP3    H116434   2.293   0.521   2.057
 2769TIP3    H216435   2.430   0.553   2.006
 2770TIP3   OH216436   2.670   0.076   1.719
 2770TIP3    H116437   2.651   0.173   1.719
 2770TIP3    H216438   2.589   0.042   1.679
 2771TIP3   OH216439   2.744   0.528   2.106
 2771TIP3    H116440   2.699   0.496   2.186
 2771TIP3    H216441   2.701   0.473   2.040
 2772TIP3   OH216442   3.071   0.411   2.033
 2772TIP3    H116443   2.993   0.379   2.080
 2772TIP3    H216444   3.142   0.384   2.096
 2773TIP3   OH216445   3.256   0.344   2.205
 2773TIP3    H116446   3.243   0.248   2.184
 2773TIP3    H216447   3.213   0.351   2.294
 2774TIP3   OH216448   2.160   0.369   2.102
 2774TIP3    H116449   2.135   0.283   2.061
 2774TIP3    H216450   2.156   0.345   2.197
 2775TIP3   OH216451   2.653   0.009   1.985
 2775TIP3    H116452   2.743  -0.026   1.999
 2775TIP3    H216453   2.663   0.043   1.894
 2776TIP3   OH216454   2.681   0.172   2.238
 2776TIP3    H116455   2.682   0.121   2.154
 2776TIP3    H216456   2.626   0.250   2.216
 2777TIP3   OH216457   2.637   1.861   0.512
 2777TIP3    H116458   2.731   1.838   0.520
 2777TIP3    H216459   2.637   1.912   0.430
 2778TIP3   OH216460   1.990   1.343   0.443
 2778TIP3    H116461   2.079   1.378   0.457
 2778TIP3    H216462   2.005   1.294   0.359
 2779TIP3   OH216463   1.909   1.811   0.955
 2779TIP3    H116464   1.820   1.775   0.935
 2779TIP3    H216465   1.940   1.749   1.025
 2780TIP3   OH216466   1.981   1.641   1.161
 2780TIP3    H116467   1.938   1.568   1.208
 2780TIP3    H216468   2.033   1.682   1.234
 2781TIP3   OH216469   3.648   1.673   1.436
 2781TIP3    H116470   3.711   1.722   1.491
 2781TIP3    H216471   3.693   1.674   1.350
 2782TIP3   OH216472   3.653   1.694   1.742
 2782TIP3    H116473   3.623   1.621   1.684
 2782TIP3    H216474   3.675   1.643   1.822
 2783TIP3   OH216475   3.560   1.251   2.286
 2783TIP3    H116476   3.468   1.264   2.320
 2783TIP3    H216477   3.608   1.324   2.330
 2784TIP3   OH216478   3.620   1.121   0.733
 2784TIP3    H116479   3.706   1.167   0.747
 2784TIP3    H216480   3.626   1.048   0.798
 2785TIP3   OH216481   3.701   0.915   0.903
 2785TIP3    H116482   3.619   0.872   0.941
 2785TIP3    H216483   3.745   0.948   0.983
 2786TIP3   OH216484   3.651   1.206   1.393
 2786TIP3    H116485   3.715   1.133   1.372
 2786TIP3    H216486   3.704   1.285   1.373
 2787TIP3   OH216487   3.513   1.455   1.666
 2787TIP3    H116488   3.445   1.513   1.705
 2787TIP3    H216489   3.465   1.412   1.592
 2788TIP3   OH216490   3.747   0.844   0.580
 2788TIP3    H116491   3.669   0.879   0.531
 2788TIP3    H216492   3.748   0.903   0.657
 2789TIP3   OH216493   3.580   0.616   0.412
 2789TIP3    H116494   3.619   0.678   0.347
 2789TIP3    H216495   3.559   0.538   0.355
 2790TIP3   OH216496   3.490   0.780   1.004
 2790TIP3    H116497   3.469   0.685   0.992
 2790TIP3    H216498   3.459   0.796   1.097
 2791TIP3   OH216499   1.958   1.009   1.397
 2791TIP3    H116500   1.942   0.964   1.311
 2791TIP3    H216501   2.047   0.973   1.419
 2792TIP3   OH216502   3.580   0.949   1.950
 2792TIP3    H116503   3.636   0.868   1.959
 2792TIP3    H216504   3.650   1.018   1.939
 2793TIP3   OH216505   3.683   0.715   2.017
 2793TIP3    H116506   3.589   0.686   2.013
 2793TIP3    H216507   3.731   0.629   2.021
 2794TIP3   OH216508   3.412   0.570   0.858
 2794TIP3    H116509   3.444   0.478   0.875
 2794TIP3    H216510   3.488   0.603   0.805
 2795TIP3   OH216511   3.513   0.622   1.377
 2795TIP3    H116512   3.611   0.618   1.377
 2795TIP3    H216513   3.497   0.580   1.463
 2796TIP3   OH216514   3.529   0.660   1.652
 2796TIP3    H116515   3.434   0.684   1.660
 2796TIP3    H216516   3.567   0.746   1.627
 2797TIP3   OH216517   1.950   0.502   1.991
 2797TIP3    H116518   2.030   0.485   2.046
 2797TIP3    H216519   1.903   0.417   1.998
 2798TIP3   OH216520   3.789   0.069   2.187
 2798TIP3    H116521   3.752  -0.001   2.132
 2798TIP3    H216522   3.758   0.149   2.137
 2799TIP3   OH216523   3.495   0.321   0.895
 2799TIP3    H116524   3.548   0.266   0.955
 2799TIP3    H216525   3.440   0.251   0.856
 2800TIP3   OH216526   2.083   0.307   1.317
 2800TIP3    H116527   2.150   0.236   1.321
 2800TIP3    H216528   2.138   0.388   1.323
 2801TIP3   OH216529   1.902   0.635   1.408
 2801TIP3    H116530   1.957   0.612   1.330
 2801TIP3    H216531   1.956   0.706   1.446
 2802TIP3   OH216532   3.701   0.257   2.031
 2802TIP3    H116533   3.625   0.308   2.071
 2802TIP3    H216534   3.652   0.212   1.959
 2803TIP3   OH216535   3.666   0.241   0.492
 2803TIP3    H116536   3.724   0.174   0.448
 2803TIP3    H216537   3.730   0.308   0.517
 2804TIP3   OH216538   1.905   0.246   0.818
 2804TIP3    H116539   1.812   0.273   0.818
 2804TIP3    H216540   1.943   0.316   0.762
 2805TIP3   OH216541   3.413   1.747   1.037
 2805TIP3    H116542   3.489   1.751   0.975
 2805TIP3    H216543   3.429   1.819   1.100
 2806TIP3   OH216544   1.904   0.109   1.588
 2806TIP3    H116545   1.893   0.128   1.682
 2806TIP3    H216546   1.844   0.173   1.546
 2807TIP3   OH216547   2.135   1.424   2.046
 2807TIP3    H116548   2.053   1.465   2.015
 2807TIP3    H216549   2.116   1.406   2.138
 2808TIP3   OH216550   2.413   1.599   1.719
 2808TIP3    H116551   2.400   1.685   1.673
 2808TIP3    H216552   2.510   1.587   1.709
 2809TIP3   OH216553   2.827   1.693   1.959
 2809TIP3    H116554   2.829   1.667   2.053
 2809TIP3    H216555   2.913   1.739   1.950
 2810TIP3   OH216556   3.048   1.849   1.925
 2810TIP3    H116557   3.127   1.814   1.882
 2810TIP3    H216558   3.084   1.885   2.009
 2811TIP3   OH216559   3.610   0.065   1.842
 2811TIP3    H116560   3.550   0.108   1.779
 2811TIP3    H216561   3.594  -0.029   1.823
 2812TIP3   OH216562   2.152   1.885   1.684
 2812TIP3    H116563   2.078   1.940   1.650
 2812TIP3    H216564   2.145   1.904   1.779
 2813TIP3   OH216565   2.386   1.827   1.576
 2813TIP3    H116566   2.292   1.846   1.601
 2813TIP3    H216567   2.397   1.881   1.496
 2814TIP3   OH216568   2.853   1.797   1.535
 2814TIP3    H116569   2.773   1.850   1.516
 2814TIP3    H216570   2.901   1.863   1.589
 2815TIP3   OH216571   3.077   1.675   1.636
 2815TIP3    H116572   3.009   1.711   1.575
 2815TIP3    H216573   3.153   1.734   1.617
 2816TIP3   OH216574   3.310   1.826   1.614
 2816TIP3    H116575   3.333   1.919   1.593
 2816TIP3    H216576   3.342   1.782   1.533
 2817TIP3   OH216577   2.131   1.715   1.373
 2817TIP3    H116578   2.108   1.665   1.455
 2817TIP3    H216579   2.219   1.676   1.351
 2818TIP3   OH216580   2.359   1.605   1.254
 2818TIP3    H116581   2.337   1.512   1.279
 2818TIP3    H216582   2.444   1.616   1.303
 2819TIP3   OH216583   2.578   1.606   1.404
 2819TIP3    H116584   2.619   1.522   1.379
 2819TIP3    H216585   2.592   1.606   1.501
 2820TIP3   OH216586   2.898   0.222   1.229
 2820TIP3    H116587   2.817   0.168   1.245
 2820TIP3    H216588   2.965   0.173   1.277
 2821TIP3   OH216589   3.454   0.077   1.260
 2821TIP3    H116590   3.516   0.110   1.191
 2821TIP3    H216591   3.372   0.064   1.208
 2822TIP3   OH216592   3.636   0.174   1.088
 2822TIP3    H116593   3.700   0.110   1.053
 2822TIP3    H216594   3.693   0.249   1.117
 2823TIP3   OH216595   2.195   0.075   1.014
 2823TIP3    H116596   2.137   0.040   0.942
 2823TIP3    H216597   2.182   0.004   1.080
 2824TIP3   OH216598   2.045   0.059   0.575
 2824TIP3    H116599   2.078   0.127   0.511
 2824TIP3    H216600   1.973   0.104   0.620
 2825TIP3   OH216601   2.639   0.053   0.994
 2825TIP3    H116602   2.705   0.119   0.966
 2825TIP3    H216603   2.656   0.049   1.090
 2826TIP3   OH216604   3.201   0.089   1.138
 2826TIP3    H116605   3.190   0.140   1.057
 2826TIP3    H216606   3.125   0.027   1.134
 2827TIP3   OH216607   3.322   0.125   0.811
 2827TIP3    H116608   3.237   0.164   0.779
 2827TIP3    H216609   3.301   0.029   0.813
 2828TIP3   OH216610   2.059   1.664   0.685
 2828TIP3    H116611   1.977   1.635   0.643
 2828TIP3    H216612   2.045   1.761   0.675
 2829TIP3   OH216613   2.174   0.244   0.418
 2829TIP3    H116614   2.244   0.196   0.367
 2829TIP3    H216615   2.228   0.291   0.485
 2830TIP3   OH216616   2.696   0.325   0.715
 2830TIP3    H116617   2.752   0.267   0.771
 2830TIP3    H216618   2.730   0.411   0.746
 2831TIP3   OH216619   2.905   1.788   0.499
 2831TIP3    H116620   3.002   1.801   0.486
 2831TIP3    H216621   2.892   1.724   0.426
 2832TIP3   OH216622   3.588   1.710   0.840
 2832TIP3    H116623   3.559   1.630   0.788
 2832TIP3    H216624   3.580   1.782   0.774
 2833TIP3   OH216625   2.141   0.116   1.977
 2833TIP3    H116626   2.109   0.025   1.974
 2833TIP3    H216627   2.219   0.109   2.035
 2834TIP3   OH216628   2.346   0.084   2.176
 2834TIP3    H116629   2.440   0.107   2.179
 2834TIP3    H216630   2.355  -0.009   2.144
 2835TIP3   OH216631   2.190   1.747   0.389
 2835TIP3    H116632   2.141   1.745   0.473
 2835TIP3    H216633   2.279   1.721   0.419
 2836TIP3   OH216634   3.232   0.096   2.116
 2836TIP3    H116635   3.197   0.021   2.168
 2836TIP3    H216636   3.315   0.055   2.088
 2837TIP3   OH216637   3.502   1.582   2.004
 2837TIP3    H116638   3.434   1.584   1.932
 2837TIP3    H216639   3.476   1.660   2.054
 2838TIP3   OH216640   4.036   0.889   1.532
 2838TIP3    H116641   3.992   0.843   1.607
 2838TIP3    H216642   4.118   0.919   1.574
 2839TIP3   OH216643   4.171   1.382   1.403
 2839TIP3    H116644   4.118   1.308   1.370
 2839TIP3    H216645   4.258   1.341   1.383
 2840TIP3   OH216646   3.826   0.663   0.887
 2840TIP3    H116647   3.797   0.755   0.880
 2840TIP3    H216648   3.741   0.618   0.892
 2841TIP3   OH216649   3.938   0.911   1.150
 2841TIP3    H116650   3.945   0.816   1.173
 2841TIP3    H216651   3.951   0.911   1.054
 2842TIP3   OH216652   4.256   0.364   1.157
 2842TIP3    H116653   4.348   0.397   1.143
 2842TIP3    H216654   4.233   0.327   1.071
 2843TIP3   OH216655   3.962   0.658   1.229
 2843TIP3    H116656   4.024   0.622   1.294
 2843TIP3    H216657   3.991   0.608   1.149
 2844TIP3   OH216658   4.211   0.316   1.566
 2844TIP3    H116659   4.174   0.379   1.501
 2844TIP3    H216660   4.143   0.321   1.638
 2845TIP3   OH216661   4.408   1.051   1.571
 2845TIP3    H116662   4.355   1.133   1.584
 2845TIP3    H216663   4.465   1.073   1.493
 2846TIP3   OH216664   4.165   0.514   1.357
 2846TIP3    H116665   4.233   0.571   1.396
 2846TIP3    H216666   4.208   0.484   1.273
 2847TIP3   OH216667   4.288   1.284   1.650
 2847TIP3    H116668   4.269   1.355   1.587
 2847TIP3    H216669   4.211   1.295   1.710
 2848TIP3   OH216670   3.873   1.229   0.753
 2848TIP3    H116671   3.872   1.262   0.661
 2848TIP3    H216672   3.899   1.307   0.806
 2849TIP3   OH216673   4.324   0.965   1.030
 2849TIP3    H116674   4.338   0.967   0.934
 2849TIP3    H216675   4.397   0.906   1.059
 2850TIP3   OH216676   4.405   1.263   1.319
 2850TIP3    H116677   4.412   1.302   1.230
 2850TIP3    H216678   4.489   1.295   1.357
 2851TIP3   OH216679   4.321   0.874   1.374
 2851TIP3    H116680   4.332   0.912   1.285
 2851TIP3    H216681   4.329   0.955   1.429
 2852TIP3   OH216682   4.521   1.344   1.899
 2852TIP3    H116683   4.431   1.382   1.891
 2852TIP3    H216684   4.522   1.276   1.828
 2853TIP3   OH216685   4.157   0.928   1.789
 2853TIP3    H116686   4.175   1.023   1.782
 2853TIP3    H216687   4.066   0.920   1.824
 2854TIP3   OH216688   4.292   1.483   1.971
 2854TIP3    H116689   4.295   1.520   1.881
 2854TIP3    H216690   4.197   1.461   1.978
 2855TIP3   OH216691   4.286   0.887   0.773
 2855TIP3    H116692   4.225   0.955   0.737
 2855TIP3    H216693   4.229   0.844   0.839
 2856TIP3   OH216694   3.857   1.158   1.706
 2856TIP3    H116695   3.800   1.147   1.629
 2856TIP3    H216696   3.891   1.067   1.715
 2857TIP3   OH216697   3.829   1.429   1.370
 2857TIP3    H116698   3.916   1.387   1.364
 2857TIP3    H216699   3.838   1.474   1.457
 2858TIP3   OH216700   4.170   1.710   0.995
 2858TIP3    H116701   4.185   1.671   1.084
 2858TIP3    H216702   4.096   1.656   0.961
 2859TIP3   OH216703   4.066   1.285   1.814
 2859TIP3    H116704   4.080   1.246   1.903
 2859TIP3    H216705   3.978   1.250   1.788
 2860TIP3   OH216706   4.330   0.090   1.407
 2860TIP3    H116707   4.264   0.104   1.337
 2860TIP3    H216708   4.310   0.168   1.462
 2861TIP3   OH216709   4.258   0.692   1.564
 2861TIP3    H116710   4.164   0.713   1.580
 2861TIP3    H216711   4.282   0.752   1.489
 2862TIP3   OH216712   4.310   0.659   1.000
 2862TIP3    H116713   4.230   0.606   1.014
 2862TIP3    H216714   4.316   0.664   0.904
 2863TIP3   OH216715   4.008   0.630   1.675
 2863TIP3    H116716   4.071   0.630   1.749
 2863TIP3    H216717   3.998   0.535   1.660
 2864TIP3   OH216718   4.388   0.359   0.334
 2864TIP3    H116719   4.377   0.267   0.361
 2864TIP3    H216720   4.353   0.404   0.412
 2865TIP3   OH216721   3.798   0.380   1.087
 2865TIP3    H116722   3.866   0.371   1.157
 2865TIP3    H216723   3.832   0.326   1.015
 2866TIP3   OH216724   3.931   0.418   0.656
 2866TIP3    H116725   3.966   0.384   0.571
 2866TIP3    H216726   3.905   0.507   0.629
 2867TIP3   OH216727   4.041   0.542   0.996
 2867TIP3    H116728   3.963   0.583   0.951
 2867TIP3    H216729   4.058   0.468   0.937
 2868TIP3   OH216730   4.393   0.567   0.737
 2868TIP3    H116731   4.468   0.613   0.780
 2868TIP3    H216732   4.364   0.633   0.671
 2869TIP3   OH216733   4.318   0.683   0.482
 2869TIP3    H116734   4.230   0.645   0.501
 2869TIP3    H216735   4.315   0.678   0.384
 2870TIP3   OH216736   4.077   1.171   2.057
 2870TIP3    H116737   4.158   1.159   2.113
 2870TIP3    H216738   4.014   1.118   2.108
 2871TIP3   OH216739   4.198   0.268   0.899
 2871TIP3    H116740   4.124   0.214   0.933
 2871TIP3    H216741   4.275   0.215   0.924
 2872TIP3   OH216742   4.149   1.072   1.262
 2872TIP3    H116743   4.181   1.074   1.171
 2872TIP3    H216744   4.108   0.983   1.267
 2873TIP3   OH216745   3.872   0.889   1.777
 2873TIP3    H116746   3.870   0.822   1.848
 2873TIP3    H216747   3.804   0.857   1.715
 2874TIP3   OH216748   4.349   1.404   1.065
 2874TIP3    H116749   4.372   1.418   0.972
 2874TIP3    H216750   4.253   1.393   1.054
 2875TIP3   OH216751   3.949   0.915   0.370
 2875TIP3    H116752   3.993   0.968   0.437
 2875TIP3    H216753   3.869   0.890   0.420
 2876TIP3   OH216754   4.418   1.726   0.896
 2876TIP3    H116755   4.320   1.729   0.905
 2876TIP3    H216756   4.445   1.686   0.981
 2877TIP3   OH216757   4.025   0.340   1.759
 2877TIP3    H116758   3.965   0.383   1.822
 2877TIP3    H216759   4.018   0.246   1.785
 2878TIP3   OH216760   3.946   1.527   1.601
 2878TIP3    H116761   4.017   1.462   1.616
 2878TIP3    H216762   3.941   1.569   1.688
 2879TIP3   OH216763   4.358   1.438   0.661
 2879TIP3    H116764   4.371   1.342   0.670
 2879TIP3    H216765   4.414   1.458   0.584
 2880TIP3   OH216766   4.109   1.083   0.626
 2880TIP3    H116767   4.047   1.126   0.688
 2880TIP3    H216768   4.148   1.160   0.581
 2881TIP3   OH216769   4.427   1.703   0.612
 2881TIP3    H116770   4.456   1.794   0.624
 2881TIP3    H216771   4.402   1.678   0.703
 2882TIP3   OH216772   4.258   0.371   0.576
 2882TIP3    H116773   4.265   0.451   0.630
 2882TIP3    H216774   4.295   0.307   0.639
 2883TIP3   OH216775   4.133   1.365   0.509
 2883TIP3    H116776   4.190   1.420   0.565
 2883TIP3    H216777   4.200   1.312   0.462
 2884TIP3   OH216778   4.044   0.640   0.452
 2884TIP3    H116779   4.027   0.729   0.487
 2884TIP3    H216780   3.978   0.635   0.380
 2885TIP3   OH216781   4.058   0.087   1.328
 2885TIP3    H116782   4.032   0.091   1.234
 2885TIP3    H216783   4.022  -0.001   1.346
 2886TIP3   OH216784   3.935   1.483   0.902
 2886TIP3    H116785   3.862   1.536   0.938
 2886TIP3    H216786   3.951   1.534   0.819
 2887TIP3   OH216787   3.876   1.747   2.043
 2887TIP3    H116788   3.967   1.723   2.063
 2887TIP3    H216789   3.836   1.658   2.034
 2888TIP3   OH216790   4.396   1.640   2.197
 2888TIP3    H116791   4.397   1.578   2.271
 2888TIP3    H216792   4.348   1.589   2.130
 2889TIP3   OH216793   3.848   1.128   2.191
 2889TIP3    H116794   3.779   1.063   2.215
 2889TIP3    H216795   3.810   1.165   2.109
 2890TIP3   OH216796   4.333   1.189   0.459
 2890TIP3    H116797   4.348   1.093   0.481
 2890TIP3    H216798   4.417   1.212   0.417
 2891TIP3   OH216799   4.017   0.833   2.089
 2891TIP3    H116800   4.105   0.815   2.054
 2891TIP3    H216801   4.037   0.880   2.173
 2892TIP3   OH216802   4.391   0.942   0.522
 2892TIP3    H116803   4.375   0.933   0.618
 2892TIP3    H216804   4.370   0.851   0.494
 2893TIP3   OH216805   4.363   0.763   1.830
 2893TIP3    H116806   4.283   0.822   1.829
 2893TIP3    H216807   4.371   0.745   1.734
 2894TIP3   OH216808   4.304   0.488   1.888
 2894TIP3    H116809   4.352   0.433   1.821
 2894TIP3    H216810   4.327   0.578   1.859
 2895TIP3   OH216811   4.451   0.376   1.677
 2895TIP3    H116812   4.488   0.453   1.630
 2895TIP3    H216813   4.374   0.351   1.621
 2896TIP3   OH216814   4.262   0.605   2.132
 2896TIP3    H116815   4.178   0.560   2.149
 2896TIP3    H216816   4.279   0.572   2.041
 2897TIP3   OH216817   4.036   0.365   2.138
 2897TIP3    H116818   4.058   0.305   2.064
 2897TIP3    H216819   4.039   0.307   2.218
 2898TIP3   OH216820   3.879   1.286   0.463
 2898TIP3    H116821   3.968   1.325   0.481
 2898TIP3    H216822   3.889   1.266   0.368
 2899TIP3   OH216823   3.795   1.786   0.983
 2899TIP3    H116824   3.713   1.745   0.946
 2899TIP3    H216825   3.808   1.729   1.062
 2900TIP3   OH216826   3.829   1.633   1.191
 2900TIP3    H116827   3.818   1.542   1.224
 2900TIP3    H216828   3.886   1.673   1.261
 2901TIP3   OH216829   3.841   1.012   1.380
 2901TIP3    H116830   3.860   0.972   1.292
 2901TIP3    H216831   3.927   0.992   1.423
 2902TIP3   OH216832   3.839   0.491   2.002
 2902TIP3    H116833   3.906   0.490   2.073
 2902TIP3    H216834   3.796   0.404   2.017
 2903TIP3   OH216835   3.954   0.338   1.333
 2903TIP3    H116836   3.997   0.250   1.347
 2903TIP3    H216837   4.030   0.398   1.328
 2904TIP3   OH216838   3.775   0.633   1.428
 2904TIP3    H116839   3.836   0.616   1.353
 2904TIP3    H216840   3.825   0.699   1.478
 2905TIP3   OH216841   3.768   0.260   0.823
 2905TIP3    H116842   3.698   0.328   0.826
 2905TIP3    H216843   3.834   0.310   0.769
 2906TIP3   OH216844   3.764   0.110   1.605
 2906TIP3    H116845   3.761   0.126   1.700
 2906TIP3    H216846   3.715   0.185   1.566
 2907TIP3   OH216847   4.030   1.443   2.069
 2907TIP3    H116848   3.938   1.462   2.043
 2907TIP3    H216849   4.029   1.348   2.089
 2908TIP3   OH216850   4.303   1.562   1.713
 2908TIP3    H116851   4.276   1.650   1.678
 2908TIP3    H216852   4.391   1.552   1.673
 2909TIP3   OH216853   4.025   1.896   1.694
 2909TIP3    H116854   3.940   1.917   1.650
 2909TIP3    H216855   4.016   1.939   1.781
 2910TIP3   OH216856   4.240   1.782   1.586
 2910TIP3    H116857   4.155   1.826   1.612
 2910TIP3    H216858   4.282   1.849   1.528
 2911TIP3   OH216859   3.985   1.712   1.400
 2911TIP3    H116860   3.966   1.653   1.475
 2911TIP3    H216861   4.080   1.690   1.383
 2912TIP3   OH216862   4.199   1.613   1.247
 2912TIP3    H116863   4.163   1.536   1.293
 2912TIP3    H216864   4.287   1.615   1.291
 2913TIP3   OH216865   4.434   1.619   1.379
 2913TIP3    H116866   4.473   1.536   1.412
 2913TIP3    H216867   4.447   1.683   1.451
 2914TIP3   OH216868   4.015   0.088   1.046
 2914TIP3    H116869   3.945   0.034   1.002
 2914TIP3    H216870   4.091   0.028   1.031
 2915TIP3   OH216871   3.918   0.082   0.576
 2915TIP3    H116872   3.974   0.134   0.515
 2915TIP3    H216873   3.876   0.150   0.629
 2916TIP3   OH216874   3.945   1.656   0.701
 2916TIP3    H116875   3.853   1.650   0.668
 2916TIP3    H216876   3.963   1.747   0.670
 2917TIP3   OH216877   4.076   0.240   0.425
 2917TIP3    H116878   4.135   0.195   0.363
 2917TIP3    H216879   4.142   0.289   0.479
 2918TIP3   OH216880   4.025   0.094   1.945
 2918TIP3    H116881   3.937   0.080   1.986
 2918TIP3    H216882   4.091   0.077   2.014
 2919TIP3   OH216883   4.257   0.080   2.162
 2919TIP3    H116884   4.349   0.109   2.170
 2919TIP3    H216885   4.267  -0.015   2.140
 2920TIP3   OH216886   4.143   1.757   0.412
 2920TIP3    H116887   4.078   1.783   0.479
 2920TIP3    H216888   4.210   1.715   0.468
 2921TIP3   OH216889   1.210   2.868   0.996
 2921TIP3    H116890   1.187   2.958   1.026
 2921TIP3    H216891   1.135   2.844   0.940
 2922TIP3   OH216892   1.108   2.759   1.357
 2922TIP3    H116893   1.122   2.707   1.439
 2922TIP3    H216894   1.025   2.722   1.323
 2923TIP3   OH216895   0.324   2.737   1.480
 2923TIP3    H116896   0.281   2.674   1.540
 2923TIP3    H216897   0.383   2.786   1.542
 2924TIP3   OH216898   1.430   3.091   1.231
 2924TIP3    H116899   1.412   3.012   1.285
 2924TIP3    H216900   1.468   3.151   1.296
 2925TIP3   OH216901   0.394   3.218   1.348
 2925TIP3    H116902   0.367   3.127   1.324
 2925TIP3    H216903   0.491   3.203   1.343
 2926TIP3   OH216904   0.105   2.552   0.895
 2926TIP3    H116905   0.120   2.641   0.929
 2926TIP3    H216906   0.046   2.515   0.963
 2927TIP3   OH216907   0.086   2.755   1.123
 2927TIP3    H116908   0.123   2.675   1.165
 2927TIP3    H216909   0.165   2.801   1.091
 2928TIP3   OH216910   1.147   3.597   1.198
 2928TIP3    H116911   1.207   3.544   1.142
 2928TIP3    H216912   1.135   3.536   1.272
 2929TIP3   OH216913   0.930   3.054   1.434
 2929TIP3    H116914   0.959   2.986   1.373
 2929TIP3    H216915   1.016   3.083   1.471
 2930TIP3   OH216916   1.744   2.157   1.483
 2930TIP3    H116917   1.751   2.225   1.554
 2930TIP3    H216918   1.828   2.174   1.438
 2931TIP3   OH216919   1.279   2.476   1.475
 2931TIP3    H116920   1.295   2.381   1.493
 2931TIP3    H216921   1.254   2.471   1.380
 2932TIP3   OH216922   0.575   2.230   1.113
 2932TIP3    H116923   0.598   2.322   1.084
 2932TIP3    H216924   0.516   2.204   1.038
 2933TIP3   OH216925   1.299   2.316   1.053
 2933TIP3    H116926   1.359   2.252   1.098
 2933TIP3    H216927   1.360   2.373   1.004
 2934TIP3   OH216928   0.237   2.516   1.206
 2934TIP3    H116929   0.301   2.466   1.260
 2934TIP3    H216930   0.263   2.486   1.117
 2935TIP3   OH216931   0.646   2.679   1.173
 2935TIP3    H116932   0.733   2.650   1.208
 2935TIP3    H216933   0.622   2.598   1.121
 2936TIP3   OH216934   1.766   2.320   1.692
 2936TIP3    H116935   1.724   2.402   1.657
 2936TIP3    H216936   1.847   2.357   1.729
 2937TIP3   OH216937   0.479   2.181   1.539
 2937TIP3    H116938   0.436   2.240   1.472
 2937TIP3    H216939   0.419   2.192   1.616
 2938TIP3   OH216940   1.127   3.137   0.923
 2938TIP3    H116941   1.136   3.123   0.827
 2938TIP3    H216942   1.107   3.233   0.927
 2939TIP3   OH216943   0.703   2.960   1.541
 2939TIP3    H116944   0.643   3.035   1.560
 2939TIP3    H216945   0.779   3.009   1.502
 2940TIP3   OH216946   1.516   2.199   1.160
 2940TIP3    H116947   1.515   2.183   1.256
 2940TIP3    H216948   1.573   2.277   1.155
 2941TIP3   OH216949   0.422   2.345   1.324
 2941TIP3    H116950   0.484   2.413   1.358
 2941TIP3    H216951   0.478   2.296   1.260
 2942TIP3   OH216952   0.577   3.197   1.634
 2942TIP3    H116953   0.574   3.295   1.623
 2942TIP3    H216954   0.484   3.182   1.663
 2943TIP3   OH216955   0.132   3.012   0.749
 2943TIP3    H116956   0.052   3.026   0.695
 2943TIP3    H216957   0.137   3.095   0.798
 2944TIP3   OH216958   1.496   3.306   1.451
 2944TIP3    H116959   1.399   3.302   1.447
 2944TIP3    H216960   1.507   3.395   1.410
 2945TIP3   OH216961   1.481   2.092   1.545
 2945TIP3    H116962   1.418   2.122   1.478
 2945TIP3    H216963   1.567   2.102   1.498
 2946TIP3   OH216964   0.779   1.863   1.338
 2946TIP3    H116965   0.730   1.777   1.341
 2946TIP3    H216966   0.702   1.925   1.336
 2947TIP3   OH216967   1.346   3.459   1.037
 2947TIP3    H116968   1.376   3.372   1.001
 2947TIP3    H216969   1.426   3.515   1.026
 2948TIP3   OH216970   1.435   3.239   0.925
 2948TIP3    H116971   1.443   3.169   0.857
 2948TIP3    H216972   1.408   3.186   1.002
 2949TIP3   OH216973   1.612   3.118   1.813
 2949TIP3    H116974   1.625   3.046   1.747
 2949TIP3    H216975   1.611   3.193   1.751
 2950TIP3   OH216976   1.067   2.789   0.759
 2950TIP3    H116977   1.006   2.847   0.710
 2950TIP3    H216978   1.148   2.792   0.705
 2951TIP3   OH216979   1.133   2.643   0.436
 2951TIP3    H116980   1.183   2.687   0.507
 2951TIP3    H216981   1.199   2.575   0.410
 2952TIP3   OH216982   1.800   2.757   1.570
 2952TIP3    H116983   1.738   2.829   1.590
 2952TIP3    H216984   1.855   2.798   1.501
 2953TIP3   OH216985   1.440   2.841   0.864
 2953TIP3    H116986   1.357   2.853   0.915
 2953TIP3    H216987   1.491   2.788   0.929
 2954TIP3   OH216988   1.402   2.639   1.772
 2954TIP3    H116989   1.382   2.729   1.802
 2954TIP3    H216990   1.339   2.631   1.699
 2955TIP3   OH216991   0.574   2.893   1.050
 2955TIP3    H116992   0.532   2.855   0.971
 2955TIP3    H216993   0.601   2.811   1.097
 2956TIP3   OH216994   0.678   3.184   1.292
 2956TIP3    H116995   0.663   3.191   1.195
 2956TIP3    H216996   0.769   3.154   1.301
 2957TIP3   OH216997   0.604   2.743   1.425
 2957TIP3    H116998   0.618   2.754   1.328
 2957TIP3    H216999   0.651   2.821   1.462
 2958TIP3   OH217000   1.229   3.322   1.483
 2958TIP3    H117001   1.242   3.377   1.563
 2958TIP3    H217002   1.215   3.233   1.522
 2959TIP3   OH217003   0.722   3.207   1.851
 2959TIP3    H117004   0.656   3.267   1.893
 2959TIP3    H217005   0.677   3.186   1.767
 2960TIP3   OH217006   1.310   2.757   0.643
 2960TIP3    H117007   1.365   2.785   0.721
 2960TIP3    H217008   1.347   2.816   0.573
 2961TIP3   OH217009   0.403   2.850   1.725
 2961TIP3    H117010   0.412   2.932   1.776
 2961TIP3    H217011   0.324   2.812   1.767
 2962TIP3   OH217012   1.040   3.422   0.918
 2962TIP3    H117013   1.029   3.426   1.013
 2962TIP3    H217014   1.022   3.514   0.889
 2963TIP3   OH217015   0.529   3.382   1.951
 2963TIP3    H117016   0.517   3.403   1.857
 2963TIP3    H217017   0.438   3.357   1.977
 2964TIP3   OH217018   1.683   1.938   0.647
 2964TIP3    H117019   1.586   1.932   0.665
 2964TIP3    H217020   1.687   2.015   0.587
 2965TIP3   OH217021   0.454   2.754   0.839
 2965TIP3    H117022   0.424   2.818   0.771
 2965TIP3    H217023   0.436   2.669   0.798
 2966TIP3   OH217024   1.746   3.294   0.412
 2966TIP3    H117025   1.770   3.387   0.427
 2966TIP3    H217026   1.834   3.256   0.434
 2967TIP3   OH217027   0.135   3.017   1.713
 2967TIP3    H117028   0.046   3.011   1.673
 2967TIP3    H217029   0.160   2.922   1.710
 2968TIP3   OH217030   0.103   3.279   1.434
 2968TIP3    H117031   0.186   3.257   1.389
 2968TIP3    H217032   0.141   3.325   1.513
 2969TIP3   OH217033   1.875   3.348   1.973
 2969TIP3    H117034   1.862   3.256   1.944
 2969TIP3    H217035   1.782   3.371   1.993
 2970TIP3   OH217036   0.982   3.305   1.822
 2970TIP3    H117037   0.993   3.381   1.883
 2970TIP3    H217038   0.886   3.284   1.830
 2971TIP3   OH217039   1.013   3.677   0.808
 2971TIP3    H117040   1.025   3.703   0.714
 2971TIP3    H217041   1.014   3.765   0.851
 2972TIP3   OH217042   0.367   3.540   0.978
 2972TIP3    H117043   0.388   3.514   1.071
 2972TIP3    H217044   0.292   3.483   0.957
 2973TIP3   OH217045   1.314   3.626   0.461
 2973TIP3    H117046   1.349   3.539   0.431
 2973TIP3    H217047   1.394   3.670   0.495
 2974TIP3   OH217048   1.283   3.626   0.825
 2974TIP3    H117049   1.187   3.618   0.816
 2974TIP3    H217050   1.306   3.540   0.864
 2975TIP3   OH217051   1.533   2.475   2.011
 2975TIP3    H117052   1.501   2.512   1.926
 2975TIP3    H217053   1.535   2.379   1.990
 2976TIP3   OH217054   0.337   3.172   1.769
 2976TIP3    H117055   0.326   3.145   1.862
 2976TIP3    H217056   0.263   3.119   1.731
 2977TIP3   OH217057   0.558   2.007   1.358
 2977TIP3    H117058   0.471   2.025   1.318
 2977TIP3    H217059   0.554   2.070   1.433
 2978TIP3   OH217060   1.054   1.977   1.692
 2978TIP3    H117061   1.092   1.940   1.776
 2978TIP3    H217062   0.957   1.978   1.709
 2979TIP3   OH217063   1.287   2.375   1.828
 2979TIP3    H117064   1.243   2.348   1.913
 2979TIP3    H217065   1.282   2.472   1.829
 2980TIP3   OH217066   1.409   2.903   0.431
 2980TIP3    H117067   1.396   2.889   0.336
 2980TIP3    H217068   1.507   2.900   0.441
 2981TIP3   OH217069   1.006   2.275   0.456
 2981TIP3    H117070   0.983   2.218   0.532
 2981TIP3    H217071   0.944   2.238   0.391
 2982TIP3   OH217072   0.601   2.487   1.493
 2982TIP3    H117073   0.516   2.481   1.541
 2982TIP3    H217074   0.599   2.584   1.472
 2983TIP3   OH217075   0.596   2.472   1.022
 2983TIP3    H117076   0.502   2.490   0.997
 2983TIP3    H217077   0.634   2.464   0.932
 2984TIP3   OH217078   1.169   2.578   0.897
 2984TIP3    H117079   1.124   2.651   0.850
 2984TIP3    H217080   1.214   2.533   0.823
 2985TIP3   OH217081   1.003   2.634   2.047
 2985TIP3    H117082   0.969   2.545   2.068
 2985TIP3    H217083   1.081   2.637   2.105
 2986TIP3   OH217084   1.226   2.537   1.197
 2986TIP3    H117085   1.214   2.612   1.135
 2986TIP3    H217086   1.225   2.462   1.134
 2987TIP3   OH217087   0.353   2.484   1.611
 2987TIP3    H117088   0.399   2.536   1.680
 2987TIP3    H217089   0.310   2.414   1.665
 2988TIP3   OH217090   0.606   2.254   0.324
 2988TIP3    H117091   0.598   2.224   0.418
 2988TIP3    H217092   0.542   2.326   0.317
 2989TIP3   OH217093   0.058   2.222   1.112
 2989TIP3    H117094   0.091   2.221   1.204
 2989TIP3    H217095   0.044   2.126   1.094
 2990TIP3   OH217096   0.161   2.338   0.617
 2990TIP3    H117097   0.200   2.354   0.528
 2990TIP3    H217098   0.101   2.412   0.624
 2991TIP3   OH217099   1.141   2.660   1.606
 2991TIP3    H117100   1.196   2.588   1.566
 2991TIP3    H217101   1.084   2.610   1.669
 2992TIP3   OH217102   0.881   2.234   1.094
 2992TIP3    H117103   0.786   2.217   1.100
 2992TIP3    H217104   0.917   2.179   1.168
 2993TIP3   OH217105   0.343   2.453   0.952
 2993TIP3    H117106   0.259   2.477   0.906
 2993TIP3    H217107   0.342   2.355   0.942
 2994TIP3   OH217108   0.668   2.458   0.754
 2994TIP3    H117109   0.765   2.452   0.757
 2994TIP3    H217110   0.648   2.512   0.676
 2995TIP3   OH217111   1.281   2.186   1.398
 2995TIP3    H117112   1.218   2.191   1.474
 2995TIP3    H217113   1.239   2.123   1.338
 2996TIP3   OH217114   0.534   2.596   0.469
 2996TIP3    H117115   0.452   2.575   0.423
 2996TIP3    H217116   0.600   2.578   0.400
 2997TIP3   OH217117   1.550   3.768   2.076
 2997TIP3    H117118   1.585   3.789   1.987
 2997TIP3    H217119   1.631   3.780   2.129
 2998TIP3   OH217120   0.357   3.001   2.018
 2998TIP3    H117121   0.448   3.016   2.048
 2998TIP3    H217122   0.319   2.951   2.091
 2999TIP3   OH217123   0.896   2.595   1.271
 2999TIP3    H117124   0.961   2.546   1.217
 2999TIP3    H217125   0.887   2.531   1.343
 3000TIP3   OH217126   0.401   2.168   0.915
 3000TIP3    H117127   0.359   2.087   0.950
 3000TIP3    H217128   0.437   2.136   0.831
 3001TIP3   OH217129   0.851   2.377   1.557
 3001TIP3    H117130   0.773   2.426   1.523
 3001TIP3    H217131   0.903   2.443   1.605
 3002TIP3   OH217132   0.868   3.036   0.704
 3002TIP3    H117133   0.814   2.958   0.685
 3002TIP3    H217134   0.841   3.053   0.798
 3003TIP3   OH217135   1.614   2.969   1.598
 3003TIP3    H117136   1.660   3.020   1.528
 3003TIP3    H217137   1.531   2.948   1.553
 3004TIP3   OH217138   1.239   2.272   0.584
 3004TIP3    H117139   1.157   2.292   0.532
 3004TIP3    H217140   1.279   2.362   0.594
 3005TIP3   OH217141   0.968   3.030   1.812
 3005TIP3    H117142   0.959   3.009   1.906
 3005TIP3    H217143   0.980   3.127   1.816
 3006TIP3   OH217144   1.337   2.497   0.680
 3006TIP3    H117145   1.415   2.483   0.738
 3006TIP3    H217146   1.340   2.594   0.666
 3007TIP3   OH217147   0.412   2.949   1.276
 3007TIP3    H117148   0.473   2.941   1.200
 3007TIP3    H217149   0.432   2.868   1.327
 3008TIP3   OH217150   1.125   3.082   0.631
 3008TIP3    H117151   1.117   3.180   0.631
 3008TIP3    H217152   1.032   3.058   0.653
 3009TIP3   OH217153   0.141   2.751   1.777
 3009TIP3    H117154   0.146   2.731   1.873
 3009TIP3    H217155   0.049   2.726   1.762
 3010TIP3   OH217156   0.747   2.759   2.007
 3010TIP3    H117157   0.731   2.715   1.923
 3010TIP3    H217158   0.834   2.718   2.027
 3011TIP3   OH217159   1.290   3.277   1.859
 3011TIP3    H117160   1.212   3.304   1.808
 3011TIP3    H217161   1.265   3.314   1.947
 3012TIP3   OH217162   1.784   2.505   0.668
 3012TIP3    H117163   1.747   2.493   0.577
 3012TIP3    H217164   1.811   2.598   0.657
 3013TIP3   OH217165   1.851   3.077   1.926
 3013TIP3    H117166   1.758   3.092   1.897
 3013TIP3    H217167   1.895   3.062   1.839
 3014TIP3   OH217168   1.613   3.387   0.683
 3014TIP3    H117169   1.558   3.318   0.722
 3014TIP3    H217170   1.634   3.350   0.596
 3015TIP3   OH217171   1.371   2.866   1.399
 3015TIP3    H117172   1.281   2.843   1.367
 3015TIP3    H217173   1.423   2.801   1.348
 3016TIP3   OH217174   0.585   3.273   1.043
 3016TIP3    H117175   0.614   3.359   1.006
 3016TIP3    H217176   0.490   3.277   1.027
 3017TIP3   OH217177   0.259   2.753   0.429
 3017TIP3    H117178   0.302   2.813   0.495
 3017TIP3    H217179   0.166   2.778   0.442
 3018TIP3   OH217180   0.749   3.076   0.947
 3018TIP3    H117181   0.697   3.156   0.966
 3018TIP3    H217182   0.692   3.008   0.991
 3019TIP3   OH217183   0.834   3.498   1.654
 3019TIP3    H117184   0.890   3.555   1.599
 3019TIP3    H217185   0.901   3.445   1.701
 3020TIP3   OH217186   0.624   3.545   0.908
 3020TIP3    H117187   0.527   3.547   0.926
 3020TIP3    H217188   0.655   3.627   0.951
 3021TIP3   OH217189   1.168   3.058   1.562
 3021TIP3    H117190   1.113   3.009   1.626
 3021TIP3    H217191   1.225   2.987   1.527
 3022TIP3   OH217192   1.400   3.203   0.482
 3022TIP3    H117193   1.405   3.178   0.576
 3022TIP3    H217194   1.353   3.123   0.449
 3023TIP3   OH217195   1.464   3.518   1.809
 3023TIP3    H117196   1.383   3.465   1.819
 3023TIP3    H217197   1.443   3.572   1.730
 3024TIP3   OH217198   1.862   3.595   0.510
 3024TIP3    H117199   1.921   3.666   0.483
 3024TIP3    H217200   1.779   3.644   0.528
 3025TIP3   OH217201   0.288   2.268   1.766
 3025TIP3    H117202   0.195   2.277   1.793
 3025TIP3    H217203   0.310   2.194   1.825
 3026TIP3   OH217204   1.482   3.061   0.725
 3026TIP3    H117205   1.465   2.975   0.772
 3026TIP3    H217206   1.579   3.053   0.715
 3027TIP3   OH217207   0.242   3.437   1.594
 3027TIP3    H117208   0.318   3.379   1.607
 3027TIP3    H217209   0.250   3.499   1.667
 3028TIP3   OH217210   0.705   3.228   0.570
 3028TIP3    H117211   0.773   3.190   0.628
 3028TIP3    H217212   0.706   3.322   0.603
 3029TIP3   OH217213   0.346   2.942   0.604
 3029TIP3    H117214   0.275   2.983   0.658
 3029TIP3    H217215   0.401   3.017   0.577
 3030TIP3   OH217216   1.156   2.227   1.630
 3030TIP3    H117217   1.196   2.276   1.704
 3030TIP3    H217218   1.113   2.150   1.674
 3031TIP3   OH217219   1.202   2.196   0.831
 3031TIP3    H117220   1.231   2.231   0.743
 3031TIP3    H217221   1.269   2.231   0.892
 3032TIP3   OH217222   1.013   3.402   0.646
 3032TIP3    H117223   0.976   3.417   0.735
 3032TIP3    H217224   1.010   3.491   0.605
 3033TIP3   OH217225   0.921   2.342   0.833
 3033TIP3    H117226   0.989   2.410   0.845
 3033TIP3    H217227   0.904   2.314   0.926
 3034TIP3   OH217228   1.013   2.500   1.791
 3034TIP3    H117229   1.006   2.535   1.883
 3034TIP3    H217230   1.035   2.407   1.803
 3035TIP3   OH217231   0.994   2.045   0.904
 3035TIP3    H117232   0.957   2.101   0.974
 3035TIP3    H217233   1.071   2.102   0.880
 3036TIP3   OH217234   0.713   3.479   0.655
 3036TIP3    H117235   0.736   3.551   0.594
 3036TIP3    H217236   0.668   3.528   0.727
 3037TIP3   OH217237   0.614   2.198   0.613
 3037TIP3    H117238   0.595   2.274   0.670
 3037TIP3    H217239   0.697   2.162   0.652
 3038TIP3   OH217240   1.561   2.249   1.863
 3038TIP3    H117241   1.475   2.253   1.820
 3038TIP3    H217242   1.624   2.266   1.789
 3039TIP3   OH217243   1.472   2.626   1.239
 3039TIP3    H117244   1.389   2.578   1.257
 3039TIP3    H217245   1.537   2.578   1.295
 3040TIP3   OH217246   0.400   3.232   0.485
 3040TIP3    H117247   0.450   3.278   0.554
 3040TIP3    H217248   0.465   3.166   0.456
 3041TIP3   OH217249   0.210   2.489   0.399
 3041TIP3    H117250   0.230   2.575   0.440
 3041TIP3    H217251   0.160   2.511   0.320
 3042TIP3   OH217252   1.556   3.567   1.413
 3042TIP3    H117253   1.564   3.617   1.328
 3042TIP3    H217254   1.649   3.555   1.436
 3043TIP3   OH217255   0.292   1.979   1.300
 3043TIP3    H117256   0.294   1.966   1.203
 3043TIP3    H217257   0.283   1.886   1.331
 3044TIP3   OH217258   0.195   3.295   0.873
 3044TIP3    H117259   0.120   3.336   0.917
 3044TIP3    H217260   0.212   3.355   0.798
 3045TIP3   OH217261   0.156   3.653   2.045
 3045TIP3    H117262   0.218   3.637   2.119
 3045TIP3    H217263   0.089   3.585   2.066
 3046TIP3   OH217264   0.590   3.546   2.165
 3046TIP3    H117265   0.672   3.500   2.188
 3046TIP3    H217266   0.567   3.500   2.080
 3047TIP3   OH217267   1.235   3.403   2.091
 3047TIP3    H117268   1.216   3.321   2.143
 3047TIP3    H217269   1.318   3.432   2.135
 3048TIP3   OH217270   1.423   3.417   0.313
 3048TIP3    H117271   1.439   3.340   0.372
 3048TIP3    H217272   1.493   3.409   0.243
 3049TIP3   OH217273   0.059   3.036   2.138
 3049TIP3    H117274   0.084   2.948   2.105
 3049TIP3    H217275   0.049   3.085   2.054
 3050TIP3   OH217276   0.599   3.003   0.478
 3050TIP3    H117277   0.637   2.934   0.537
 3050TIP3    H217278   0.656   3.078   0.504
 3051TIP3   OH217279   0.791   3.021   2.036
 3051TIP3    H117280   0.763   3.078   1.960
 3051TIP3    H217281   0.758   2.931   2.011
 3052TIP3   OH217282   1.360   2.997   1.848
 3052TIP3    H117283   1.440   3.054   1.848
 3052TIP3    H217284   1.295   3.068   1.867
 3053TIP3   OH217285   0.205   2.713   2.053
 3053TIP3    H117286   0.216   2.618   2.071
 3053TIP3    H217287   0.203   2.749   2.144
 3054TIP3   OH217288   0.711   2.804   0.619
 3054TIP3    H117289   0.628   2.753   0.624
 3054TIP3    H217290   0.753   2.760   0.541
 3055TIP3   OH217291   0.562   2.633   1.762
 3055TIP3    H117292   0.514   2.718   1.753
 3055TIP3    H217293   0.643   2.657   1.712
 3056TIP3   OH217294   0.849   2.689   0.401
 3056TIP3    H117295   0.880   2.750   0.333
 3056TIP3    H217296   0.932   2.641   0.423
 3057TIP3   OH217297   1.156   2.922   2.146
 3057TIP3    H117298   1.221   2.867   2.100
 3057TIP3    H217299   1.093   2.857   2.181
 3058TIP3   OH217300   1.676   2.894   0.484
 3058TIP3    H117301   1.717   2.903   0.395
 3058TIP3    H217302   1.696   2.978   0.529
 3059TIP3   OH217303   0.666   2.403   1.865
 3059TIP3    H117304   0.667   2.331   1.798
 3059TIP3    H217305   0.632   2.480   1.816
 3060TIP3   OH217306   0.701   2.202   1.680
 3060TIP3    H117307   0.767   2.251   1.627
 3060TIP3    H217308   0.624   2.204   1.619
 3061TIP3   OH217309   0.822   2.781   1.714
 3061TIP3    H117310   0.912   2.814   1.727
 3061TIP3    H217311   0.782   2.851   1.658
 3062TIP3   OH217312   1.280   2.493   2.166
 3062TIP3    H117313   1.301   2.399   2.177
 3062TIP3    H217314   1.360   2.526   2.120
 3063TIP3   OH217315   1.445   2.831   2.043
 3063TIP3    H117316   1.404   2.876   1.965
 3063TIP3    H217317   1.535   2.816   2.008
 3064TIP3   OH217318   0.496   2.450   2.093
 3064TIP3    H117319   0.413   2.398   2.085
 3064TIP3    H217320   0.532   2.444   2.003
 3065TIP3   OH217321   0.788   1.954   1.666
 3065TIP3    H117322   0.761   2.046   1.687
 3065TIP3    H217323   0.705   1.922   1.628
 3066TIP3   OH217324   0.869   2.389   2.087
 3066TIP3    H117325   0.823   2.356   2.167
 3066TIP3    H217326   0.798   2.380   2.021
 3067TIP3   OH217327   1.126   2.294   2.028
 3067TIP3    H117328   1.032   2.312   2.046
 3067TIP3    H217329   1.150   2.243   2.108
 3068TIP3   OH217330   1.262   2.140   2.221
 3068TIP3    H117331   1.280   2.047   2.193
 3068TIP3    H217332   1.255   2.131   2.318
 3069TIP3   OH217333   0.280   2.275   2.105
 3069TIP3    H117334   0.308   2.195   2.057
 3069TIP3    H217335   0.247   2.240   2.190
 3070TIP3   OH217336   0.735   1.924   1.933
 3070TIP3    H117337   0.812   1.869   1.957
 3070TIP3    H217338   0.740   1.916   1.836
 3071TIP3   OH217339   0.791   2.051   2.232
 3071TIP3    H117340   0.767   2.013   2.145
 3071TIP3    H217341   0.745   2.138   2.231
 3072TIP3   OH217342   0.746   3.750   0.513
 3072TIP3    H117343   0.836   3.756   0.547
 3072TIP3    H217344   0.755   3.777   0.420
 3073TIP3   OH217345   0.124   3.217   0.429
 3073TIP3    H117346   0.215   3.243   0.456
 3073TIP3    H217347   0.144   3.160   0.354
 3074TIP3   OH217348   4.489   3.835   1.040
 3074TIP3    H117349   4.469   3.785   0.959
 3074TIP3    H217350   4.491   3.764   1.107
 3075TIP3   OH217351   0.080   3.570   1.174
 3075TIP3    H117352   0.018   3.544   1.245
 3075TIP3    H217353   0.160   3.589   1.226
 3076TIP3   OH217354   1.835   3.670   1.386
 3076TIP3    H117355   1.860   3.648   1.477
 3076TIP3    H217356   1.774   3.744   1.401
 3077TIP3   OH217357   1.777   3.585   1.673
 3077TIP3    H117358   1.754   3.494   1.645
 3077TIP3    H217359   1.805   3.566   1.764
 3078TIP3   OH217360   1.667   3.143   2.282
 3078TIP3    H117361   1.576   3.149   2.320
 3078TIP3    H217362   1.713   3.213   2.333
 3079TIP3   OH217363   1.744   3.000   0.731
 3079TIP3    H117364   1.837   3.029   0.726
 3079TIP3    H217365   1.747   2.926   0.795
 3080TIP3   OH217366   1.812   2.772   0.921
 3080TIP3    H117367   1.724   2.739   0.950
 3080TIP3    H217368   1.854   2.790   1.009
 3081TIP3   OH217369   1.755   3.070   1.402
 3081TIP3    H117370   1.828   3.008   1.383
 3081TIP3    H217371   1.794   3.155   1.377
 3082TIP3   OH217372   1.653   3.345   1.663
 3082TIP3    H117373   1.587   3.395   1.713
 3082TIP3    H217374   1.601   3.316   1.584
 3083TIP3   OH217375   1.880   2.735   0.560
 3083TIP3    H117376   1.793   2.759   0.520
 3083TIP3    H217377   1.892   2.809   0.620
 3084TIP3   OH217378   1.690   2.498   0.407
 3084TIP3    H117379   1.600   2.520   0.379
 3084TIP3    H217380   1.706   2.419   0.351
 3085TIP3   OH217381   1.585   2.661   0.998
 3085TIP3    H117382   1.548   2.585   0.950
 3085TIP3    H217383   1.558   2.642   1.090
 3086TIP3   OH217384   0.126   2.886   1.389
 3086TIP3    H117385   0.131   2.869   1.294
 3086TIP3    H217386   0.209   2.845   1.422
 3087TIP3   OH217387   1.720   2.822   1.950
 3087TIP3    H117388   1.756   2.731   1.970
 3087TIP3    H217389   1.800   2.875   1.932
 3088TIP3   OH217390   1.802   2.571   2.005
 3088TIP3    H117391   1.720   2.519   2.017
 3088TIP3    H217392   1.871   2.503   2.022
 3089TIP3   OH217393   1.541   2.433   0.851
 3089TIP3    H117394   1.547   2.336   0.865
 3089TIP3    H217395   1.628   2.449   0.811
 3090TIP3   OH217396   1.639   2.481   1.383
 3090TIP3    H117397   1.738   2.475   1.388
 3090TIP3    H217398   1.620   2.504   1.477
 3091TIP3   OH217399   1.629   2.543   1.643
 3091TIP3    H117400   1.544   2.576   1.676
 3091TIP3    H217401   1.683   2.624   1.631
 3092TIP3   OH217402   0.069   2.439   2.079
 3092TIP3    H117403   0.141   2.372   2.075
 3092TIP3    H217404   0.000   2.398   2.022
 3093TIP3   OH217405   1.833   1.976   2.174
 3093TIP3    H117406   1.879   1.906   2.124
 3093TIP3    H217407   1.830   2.049   2.107
 3094TIP3   OH217408   1.572   2.141   0.875
 3094TIP3    H117409   1.619   2.112   0.955
 3094TIP3    H217410   1.547   2.057   0.832
 3095TIP3   OH217411   0.136   2.188   1.372
 3095TIP3    H117412   0.188   2.105   1.373
 3095TIP3    H217413   0.206   2.255   1.376
 3096TIP3   OH217414   0.029   2.522   1.390
 3096TIP3    H117415   0.117   2.525   1.347
 3096TIP3    H217416  -0.016   2.604   1.360
 3097TIP3   OH217417   1.793   2.182   2.006
 3097TIP3    H117418   1.709   2.224   2.036
 3097TIP3    H217419   1.759   2.130   1.931
 3098TIP3   OH217420   1.783   2.147   0.482
 3098TIP3    H117421   1.835   2.082   0.431
 3098TIP3    H217422   1.853   2.193   0.531
 3099TIP3   OH217423   0.030   2.120   0.732
 3099TIP3    H117424   0.016   2.147   0.824
 3099TIP3    H217425   0.076   2.198   0.693
 3100TIP3   OH217426   1.535   3.644   0.984
 3100TIP3    H117427   1.613   3.664   0.930
 3100TIP3    H217428   1.551   3.694   1.066
 3101TIP3   OH217429   0.068   1.991   1.665
 3101TIP3    H117430  -0.013   1.985   1.718
 3101TIP3    H217431   0.040   2.038   1.585
 3102TIP3   OH217432   0.266   3.310   2.025
 3102TIP3    H117433   0.195   3.269   1.973
 3102TIP3    H217434   0.226   3.320   2.112
 3103TIP3   OH217435   0.568   3.462   1.696
 3103TIP3    H117436   0.541   3.549   1.659
 3103TIP3    H217437   0.667   3.470   1.693
 3104TIP3   OH217438   0.948   3.567   1.955
 3104TIP3    H117439   0.952   3.550   2.051
 3104TIP3    H217440   1.034   3.613   1.940
 3105TIP3   OH217441   1.155   3.735   1.897
 3105TIP3    H117442   1.233   3.709   1.845
 3105TIP3    H217443   1.196   3.766   1.980
 3106TIP3   OH217444   1.679   1.928   1.833
 3106TIP3    H117445   1.612   1.977   1.783
 3106TIP3    H217446   1.686   1.846   1.778
 3107TIP3   OH217447   0.299   3.767   1.697
 3107TIP3    H117448   0.206   3.786   1.670
 3107TIP3    H217449   0.302   3.807   1.785
 3108TIP3   OH217450   0.516   3.692   1.567
 3108TIP3    H117451   0.430   3.718   1.608
 3108TIP3    H217452   0.522   3.755   1.493
 3109TIP3   OH217453   1.001   3.644   1.482
 3109TIP3    H117454   0.929   3.676   1.425
 3109TIP3    H217455   1.018   3.725   1.533
 3110TIP3   OH217456   1.197   3.538   1.650
 3110TIP3    H117457   1.118   3.549   1.592
 3110TIP3    H217458   1.253   3.610   1.613
 3111TIP3   OH217459   1.394   3.725   1.573
 3111TIP3    H117460   1.425   3.816   1.560
 3111TIP3    H217461   1.448   3.679   1.506
 3112TIP3   OH217462   0.272   3.619   1.374
 3112TIP3    H117463   0.248   3.557   1.445
 3112TIP3    H217464   0.353   3.576   1.338
 3113TIP3   OH217465   0.436   3.468   1.228
 3113TIP3    H117466   0.422   3.379   1.267
 3113TIP3    H217467   0.521   3.490   1.272
 3114TIP3   OH217468   0.662   3.485   1.374
 3114TIP3    H117469   0.717   3.407   1.355
 3114TIP3    H217470   0.697   3.515   1.459
 3115TIP3   OH217471   0.975   2.018   1.233
 3115TIP3    H117472   0.902   1.967   1.275
 3115TIP3    H217473   1.039   1.946   1.225
 3116TIP3   OH217474   1.569   1.936   1.243
 3116TIP3    H117475   1.645   1.973   1.193
 3116TIP3    H217476   1.495   1.973   1.190
 3117TIP3   OH217477   1.751   2.003   1.064
 3117TIP3    H117478   1.817   1.953   1.011
 3117TIP3    H217479   1.809   2.074   1.103
 3118TIP3   OH217480   0.307   1.938   1.022
 3118TIP3    H117481   0.212   1.932   1.002
 3118TIP3    H217482   0.340   1.846   1.007
 3119TIP3   OH217483   0.182   1.930   0.602
 3119TIP3    H117484   0.216   1.982   0.527
 3119TIP3    H217485   0.125   1.997   0.647
 3120TIP3   OH217486   0.729   1.882   1.007
 3120TIP3    H117487   0.823   1.880   0.986
 3120TIP3    H217488   0.724   1.935   1.088
 3121TIP3   OH217489   1.314   1.948   1.122
 3121TIP3    H117490   1.253   1.974   1.052
 3121TIP3    H217491   1.268   1.873   1.165
 3122TIP3   OH217492   1.432   1.937   0.724
 3122TIP3    H117493   1.348   1.983   0.712
 3122TIP3    H217494   1.405   1.860   0.779
 3123TIP3   OH217495   0.185   3.523   0.672
 3123TIP3    H117496   0.089   3.515   0.656
 3123TIP3    H217497   0.197   3.620   0.659
 3124TIP3   OH217498   0.301   2.152   0.419
 3124TIP3    H117499   0.363   2.086   0.384
 3124TIP3    H217500   0.344   2.185   0.499
 3125TIP3   OH217501   0.885   2.142   0.655
 3125TIP3    H117502   0.919   2.083   0.725
 3125TIP3    H217503   0.890   2.227   0.707
 3126TIP3   OH217504   1.059   3.671   0.534
 3126TIP3    H117505   1.157   3.663   0.524
 3126TIP3    H217506   1.033   3.620   0.453
 3127TIP3   OH217507   1.731   3.591   0.797
 3127TIP3    H117508   1.681   3.508   0.774
 3127TIP3    H217509   1.714   3.638   0.713
 3128TIP3   OH217510   0.272   2.044   1.938
 3128TIP3    H117511   0.206   1.974   1.958
 3128TIP3    H217512   0.345   2.018   1.999
 3129TIP3   OH217513   0.443   1.970   2.140
 3129TIP3    H117514   0.534   1.943   2.119
 3129TIP3    H217515   0.410   1.890   2.185
 3130TIP3   OH217516   0.339   3.610   0.383
 3130TIP3    H117517   0.310   3.587   0.472
 3130TIP3    H217518   0.435   3.597   0.390
 3131TIP3   OH217519   1.293   1.883   2.150
 3131TIP3    H117520   1.303   1.831   2.234
 3131TIP3    H217521   1.387   1.883   2.118
 3132TIP3   OH217522   1.653   3.498   2.000
 3132TIP3    H117523   1.579   3.500   1.935
 3132TIP3    H217524   1.647   3.587   2.038
 3133TIP3   OH217525   3.090   2.879   1.009
 3133TIP3    H117526   3.071   2.974   1.027
 3133TIP3    H217527   3.018   2.855   0.948
 3134TIP3   OH217528   2.987   2.744   1.344
 3134TIP3    H117529   2.995   2.700   1.432
 3134TIP3    H217530   2.909   2.703   1.304
 3135TIP3   OH217531   2.158   2.735   1.507
 3135TIP3    H117532   2.171   2.642   1.534
 3135TIP3    H217533   2.228   2.777   1.561
 3136TIP3   OH217534   3.293   3.066   1.242
 3136TIP3    H117535   3.273   2.996   1.307
 3136TIP3    H217536   3.342   3.128   1.298
 3137TIP3   OH217537   2.300   3.206   1.336
 3137TIP3    H117538   2.269   3.121   1.297
 3137TIP3    H217539   2.397   3.187   1.336
 3138TIP3   OH217540   1.963   2.542   0.904
 3138TIP3    H117541   1.930   2.624   0.943
 3138TIP3    H217542   1.909   2.540   0.823
 3139TIP3   OH217543   1.959   2.761   1.154
 3139TIP3    H117544   1.999   2.673   1.174
 3139TIP3    H217545   2.036   2.810   1.119
 3140TIP3   OH217546   3.046   3.596   1.191
 3140TIP3    H117547   3.101   3.542   1.130
 3140TIP3    H217548   3.029   3.534   1.263
 3141TIP3   OH217549   2.759   3.076   1.470
 3141TIP3    H117550   2.814   3.031   1.404
 3141TIP3    H217551   2.830   3.110   1.530
 3142TIP3   OH217552   3.637   2.178   1.433
 3142TIP3    H117553   3.633   2.228   1.517
 3142TIP3    H217554   3.728   2.202   1.405
 3143TIP3   OH217555   3.149   2.495   1.478
 3143TIP3    H117556   3.169   2.402   1.498
 3143TIP3    H217557   3.115   2.489   1.385
 3144TIP3   OH217558   2.430   2.223   1.126
 3144TIP3    H117559   2.442   2.318   1.107
 3144TIP3    H217560   2.374   2.198   1.050
 3145TIP3   OH217561   3.183   2.317   1.047
 3145TIP3    H117562   3.243   2.250   1.087
 3145TIP3    H217563   3.243   2.373   0.997
 3146TIP3   OH217564   2.081   2.531   1.233
 3146TIP3    H117565   2.143   2.495   1.299
 3146TIP3    H217566   2.111   2.483   1.153
 3147TIP3   OH217567   2.544   2.684   1.166
 3147TIP3    H117568   2.630   2.640   1.187
 3147TIP3    H217569   2.497   2.604   1.131
 3148TIP3   OH217570   3.658   2.311   1.679
 3148TIP3    H117571   3.617   2.397   1.652
 3148TIP3    H217572   3.727   2.341   1.740
 3149TIP3   OH217573   2.333   2.172   1.559
 3149TIP3    H117574   2.273   2.216   1.495
 3149TIP3    H217575   2.289   2.196   1.642
 3150TIP3   OH217576   3.017   3.141   0.928
 3150TIP3    H117577   3.012   3.137   0.831
 3150TIP3    H217578   2.943   3.204   0.946
 3151TIP3   OH217579   2.530   2.948   1.538
 3151TIP3    H117580   2.467   3.018   1.564
 3151TIP3    H217581   2.604   3.003   1.503
 3152TIP3   OH217582   3.409   2.193   1.148
 3152TIP3    H117583   3.390   2.201   1.243
 3152TIP3    H217584   3.493   2.241   1.143
 3153TIP3   OH217585   2.270   2.371   1.352
 3153TIP3    H117586   2.337   2.430   1.393
 3153TIP3    H217587   2.322   2.326   1.284
 3154TIP3   OH217588   2.417   3.170   1.650
 3154TIP3    H117589   2.415   3.259   1.611
 3154TIP3    H217590   2.328   3.166   1.691
 3155TIP3   OH217591   2.005   3.062   0.684
 3155TIP3    H117592   2.002   3.121   0.605
 3155TIP3    H217593   2.029   3.129   0.752
 3156TIP3   OH217594   3.378   3.263   1.432
 3156TIP3    H117595   3.283   3.272   1.457
 3156TIP3    H217596   3.387   3.352   1.393
 3157TIP3   OH217597   3.379   2.086   1.531
 3157TIP3    H117598   3.309   2.111   1.466
 3157TIP3    H217599   3.461   2.092   1.478
 3158TIP3   OH217600   2.663   1.922   1.280
 3158TIP3    H117601   2.647   1.828   1.292
 3158TIP3    H217602   2.578   1.961   1.314
 3159TIP3   OH217603   3.210   3.467   1.018
 3159TIP3    H117604   3.250   3.382   0.990
 3159TIP3    H217605   3.289   3.524   1.027
 3160TIP3   OH217606   3.337   3.245   0.936
 3160TIP3    H117607   3.305   3.188   0.864
 3160TIP3    H217608   3.316   3.188   1.012
 3161TIP3   OH217609   3.491   3.111   1.807
 3161TIP3    H117610   3.509   3.040   1.741
 3161TIP3    H217611   3.505   3.189   1.749
 3162TIP3   OH217612   2.949   2.800   0.750
 3162TIP3    H117613   2.886   2.870   0.727
 3162TIP3    H217614   3.030   2.825   0.699
 3163TIP3   OH217615   3.030   2.646   0.431
 3163TIP3    H117616   3.085   2.682   0.503
 3163TIP3    H217617   3.079   2.565   0.411
 3164TIP3   OH217618   3.678   2.758   1.582
 3164TIP3    H117619   3.604   2.821   1.595
 3164TIP3    H217620   3.727   2.805   1.511
 3165TIP3   OH217621   3.329   2.870   0.889
 3165TIP3    H117622   3.244   2.875   0.941
 3165TIP3    H217623   3.380   2.813   0.950
 3166TIP3   OH217624   3.288   2.613   1.803
 3166TIP3    H117625   3.265   2.701   1.840
 3166TIP3    H217626   3.231   2.615   1.723
 3167TIP3   OH217627   2.440   2.881   1.036
 3167TIP3    H117628   2.412   2.844   0.949
 3167TIP3    H217629   2.488   2.804   1.075
 3168TIP3   OH217630   2.567   3.173   1.321
 3168TIP3    H117631   2.582   3.158   1.226
 3168TIP3    H217632   2.647   3.139   1.365
 3169TIP3   OH217633   2.460   2.718   1.424
 3169TIP3    H117634   2.482   2.731   1.328
 3169TIP3    H217635   2.501   2.797   1.468
 3170TIP3   OH217636   3.125   3.308   1.494
 3170TIP3    H117637   3.096   3.373   1.560
 3170TIP3    H217638   3.099   3.222   1.533
 3171TIP3   OH217639   2.584   3.197   1.863
 3171TIP3    H117640   2.516   3.251   1.910
 3171TIP3    H217641   2.534   3.178   1.781
 3172TIP3   OH217642   3.201   2.781   0.664
 3172TIP3    H117643   3.252   2.812   0.742
 3172TIP3    H217644   3.248   2.828   0.591
 3173TIP3   OH217645   2.281   2.829   1.738
 3173TIP3    H117646   2.308   2.920   1.754
 3173TIP3    H217647   2.206   2.817   1.799
 3174TIP3   OH217648   2.861   3.365   0.954
 3174TIP3    H117649   2.919   3.401   1.023
 3174TIP3    H217650   2.856   3.441   0.894
 3175TIP3   OH217651   2.396   3.371   1.960
 3175TIP3    H117652   2.379   3.416   1.874
 3175TIP3    H217653   2.305   3.344   1.986
 3176TIP3   OH217654   3.562   1.896   0.638
 3176TIP3    H117655   3.470   1.911   0.669
 3176TIP3    H217656   3.580   1.982   0.596
 3177TIP3   OH217657   2.333   2.752   0.814
 3177TIP3    H117658   2.313   2.830   0.760
 3177TIP3    H217659   2.317   2.678   0.754
 3178TIP3   OH217660   3.641   3.300   0.431
 3178TIP3    H117661   3.669   3.392   0.448
 3178TIP3    H217662   3.724   3.253   0.451
 3179TIP3   OH217663   1.974   3.032   1.689
 3179TIP3    H117664   1.935   3.040   1.601
 3179TIP3    H217665   1.999   2.937   1.691
 3180TIP3   OH217666   1.976   3.292   1.379
 3180TIP3    H117667   2.055   3.238   1.366
 3180TIP3    H217668   2.012   3.372   1.421
 3181TIP3   OH217669   3.749   3.374   1.973
 3181TIP3    H117670   3.724   3.293   1.927
 3181TIP3    H217671   3.664   3.394   2.018
 3182TIP3   OH217672   2.838   3.305   1.839
 3182TIP3    H117673   2.850   3.379   1.901
 3182TIP3    H217674   2.743   3.283   1.846
 3183TIP3   OH217675   2.899   3.681   0.802
 3183TIP3    H117676   2.910   3.718   0.712
 3183TIP3    H217677   2.894   3.763   0.854
 3184TIP3   OH217678   2.262   3.508   0.996
 3184TIP3    H117679   2.301   3.493   1.086
 3184TIP3    H217680   2.177   3.465   1.009
 3185TIP3   OH217681   3.164   3.596   0.483
 3185TIP3    H117682   3.231   3.539   0.436
 3185TIP3    H217683   3.203   3.592   0.572
 3186TIP3   OH217684   3.170   3.605   0.776
 3186TIP3    H117685   3.073   3.608   0.777
 3186TIP3    H217686   3.190   3.557   0.860
 3187TIP3   OH217687   3.418   2.476   2.014
 3187TIP3    H117688   3.390   2.513   1.928
 3187TIP3    H217689   3.411   2.379   1.998
 3188TIP3   OH217690   2.189   3.159   1.787
 3188TIP3    H117691   2.187   3.124   1.879
 3188TIP3    H217692   2.103   3.128   1.751
 3189TIP3   OH217693   2.444   2.017   1.377
 3189TIP3    H117694   2.358   2.029   1.334
 3189TIP3    H217695   2.430   2.073   1.457
 3190TIP3   OH217696   2.934   1.975   1.720
 3190TIP3    H117697   2.971   1.944   1.807
 3190TIP3    H217698   2.837   1.974   1.736
 3191TIP3   OH217699   3.153   2.366   1.822
 3191TIP3    H117700   3.112   2.338   1.908
 3191TIP3    H217701   3.185   2.456   1.842
 3192TIP3   OH217702   3.326   2.884   0.450
 3192TIP3    H117703   3.291   2.887   0.360
 3192TIP3    H217704   3.422   2.878   0.429
 3193TIP3   OH217705   2.899   2.285   0.453
 3193TIP3    H117706   2.878   2.256   0.543
 3193TIP3    H217707   2.859   2.213   0.402
 3194TIP3   OH217708   2.483   2.464   1.504
 3194TIP3    H117709   2.410   2.477   1.567
 3194TIP3    H217710   2.490   2.557   1.470
 3195TIP3   OH217711   2.434   2.471   1.049
 3195TIP3    H117712   2.340   2.455   1.028
 3195TIP3    H217713   2.475   2.481   0.959
 3196TIP3   OH217714   3.053   2.582   0.890
 3196TIP3    H117715   3.021   2.663   0.843
 3196TIP3    H217716   3.080   2.528   0.815
 3197TIP3   OH217717   2.904   2.606   2.041
 3197TIP3    H117718   2.870   2.525   2.083
 3197TIP3    H217719   2.980   2.624   2.100
 3198TIP3   OH217720   3.083   2.504   1.217
 3198TIP3    H117721   3.086   2.581   1.157
 3198TIP3    H217722   3.105   2.432   1.154
 3199TIP3   OH217723   2.222   2.490   1.622
 3199TIP3    H117724   2.257   2.545   1.695
 3199TIP3    H217725   2.186   2.414   1.672
 3200TIP3   OH217726   2.496   2.251   0.316
 3200TIP3    H117727   2.478   2.236   0.412
 3200TIP3    H217728   2.451   2.335   0.299
 3201TIP3   OH217729   1.902   2.214   1.133
 3201TIP3    H117730   1.980   2.215   1.191
 3201TIP3    H217731   1.935   2.257   1.052
 3202TIP3   OH217732   2.001   2.294   0.611
 3202TIP3    H117733   2.063   2.330   0.545
 3202TIP3    H217734   1.947   2.374   0.627
 3203TIP3   OH217735   3.023   2.683   1.618
 3203TIP3    H117736   3.082   2.620   1.572
 3203TIP3    H217737   2.967   2.624   1.672
 3204TIP3   OH217738   2.742   2.273   1.062
 3204TIP3    H117739   2.648   2.260   1.085
 3204TIP3    H217740   2.787   2.227   1.138
 3205TIP3   OH217741   2.165   2.401   1.009
 3205TIP3    H117742   2.105   2.456   0.953
 3205TIP3    H217743   2.180   2.321   0.955
 3206TIP3   OH217744   2.543   2.468   0.798
 3206TIP3    H117745   2.635   2.435   0.793
 3206TIP3    H217746   2.530   2.509   0.711
 3207TIP3   OH217747   3.178   2.189   1.386
 3207TIP3    H117748   3.118   2.191   1.464
 3207TIP3    H217749   3.139   2.123   1.327
 3208TIP3   OH217750   2.453   2.564   0.509
 3208TIP3    H117751   2.397   2.530   0.436
 3208TIP3    H217752   2.535   2.580   0.459
 3209TIP3   OH217753   3.442   3.775   2.058
 3209TIP3    H117754   3.479   3.793   1.970
 3209TIP3    H217755   3.514   3.812   2.111
 3210TIP3   OH217756   2.200   3.019   2.032
 3210TIP3    H117757   2.266   3.005   2.102
 3210TIP3    H217758   2.121   2.980   2.074
 3211TIP3   OH217759   2.753   2.527   1.239
 3211TIP3    H117760   2.846   2.505   1.218
 3211TIP3    H217761   2.725   2.450   1.290
 3212TIP3   OH217762   2.269   2.163   0.918
 3212TIP3    H117763   2.223   2.086   0.959
 3212TIP3    H217764   2.333   2.119   0.860
 3213TIP3   OH217765   2.737   2.385   1.563
 3213TIP3    H117766   2.656   2.434   1.538
 3213TIP3    H217767   2.785   2.449   1.619
 3214TIP3   OH217768   2.772   3.022   0.725
 3214TIP3    H117769   2.705   2.964   0.682
 3214TIP3    H217770   2.728   3.034   0.813
 3215TIP3   OH217771   3.492   2.960   1.593
 3215TIP3    H117772   3.535   3.014   1.522
 3215TIP3    H217773   3.403   2.949   1.556
 3216TIP3   OH217774   3.126   2.307   0.600
 3216TIP3    H117775   3.071   2.317   0.521
 3216TIP3    H217776   3.180   2.389   0.596
 3217TIP3   OH217777   2.861   3.034   1.830
 3217TIP3    H117778   2.838   3.023   1.923
 3217TIP3    H217779   2.855   3.132   1.823
 3218TIP3   OH217780   3.256   2.523   0.644
 3218TIP3    H117781   3.314   2.493   0.717
 3218TIP3    H217782   3.245   2.617   0.664
 3219TIP3   OH217783   2.266   2.945   1.241
 3219TIP3    H117784   2.318   2.913   1.164
 3219TIP3    H217785   2.292   2.884   1.312
 3220TIP3   OH217786   3.014   3.098   0.620
 3220TIP3    H117787   2.995   3.194   0.616
 3220TIP3    H217788   2.925   3.063   0.643
 3221TIP3   OH217789   1.987   2.774   1.789
 3221TIP3    H117790   1.973   2.715   1.866
 3221TIP3    H217791   1.930   2.734   1.720
 3222TIP3   OH217792   2.666   2.745   1.993
 3222TIP3    H117793   2.639   2.710   1.907
 3222TIP3    H217794   2.754   2.703   2.003
 3223TIP3   OH217795   3.166   3.277   1.862
 3223TIP3    H117796   3.095   3.295   1.799
 3223TIP3    H217797   3.131   3.325   1.941
 3224TIP3   OH217798   3.697   2.472   0.678
 3224TIP3    H117799   3.644   2.482   0.596
 3224TIP3    H217800   3.739   2.560   0.681
 3225TIP3   OH217801   3.723   3.064   1.942
 3225TIP3    H117802   3.632   3.084   1.910
 3225TIP3    H217803   3.772   3.054   1.857
 3226TIP3   OH217804   3.530   3.384   0.708
 3226TIP3    H117805   3.501   3.324   0.778
 3226TIP3    H217806   3.514   3.333   0.628
 3227TIP3   OH217807   3.240   2.850   1.403
 3227TIP3    H117808   3.150   2.828   1.372
 3227TIP3    H217809   3.293   2.785   1.354
 3228TIP3   OH217810   2.486   3.267   1.036
 3228TIP3    H117811   2.527   3.355   1.024
 3228TIP3    H217812   2.406   3.274   0.982
 3229TIP3   OH217813   2.053   2.817   0.374
 3229TIP3    H117814   2.104   2.856   0.447
 3229TIP3    H217815   1.983   2.771   0.423
 3230TIP3   OH217816   2.641   3.045   0.958
 3230TIP3    H117817   2.594   3.129   0.978
 3230TIP3    H217818   2.583   2.979   1.002
 3231TIP3   OH217819   2.706   3.470   1.655
 3231TIP3    H117820   2.765   3.533   1.610
 3231TIP3    H217821   2.764   3.435   1.726
 3232TIP3   OH217822   2.522   3.545   0.906
 3232TIP3    H117823   2.427   3.546   0.927
 3232TIP3    H217824   2.552   3.624   0.955
 3233TIP3   OH217825   3.007   3.068   1.576
 3233TIP3    H117826   2.980   3.031   1.663
 3233TIP3    H217827   3.047   2.988   1.535
 3234TIP3   OH217828   3.283   3.214   0.476
 3234TIP3    H117829   3.314   3.183   0.563
 3234TIP3    H217830   3.207   3.154   0.464
 3235TIP3   OH217831   3.353   3.511   1.790
 3235TIP3    H117832   3.274   3.455   1.806
 3235TIP3    H217833   3.328   3.561   1.711
 3236TIP3   OH217834   3.726   3.606   0.505
 3236TIP3    H117835   3.780   3.667   0.451
 3236TIP3    H217836   3.659   3.669   0.541
 3237TIP3   OH217837   2.168   2.270   1.783
 3237TIP3    H117838   2.098   2.301   1.842
 3237TIP3    H217839   2.177   2.180   1.817
 3238TIP3   OH217840   3.351   3.072   0.707
 3238TIP3    H117841   3.324   2.991   0.755
 3238TIP3    H217842   3.448   3.064   0.718
 3239TIP3   OH217843   2.109   3.432   1.600
 3239TIP3    H117844   2.172   3.359   1.618
 3239TIP3    H217845   2.118   3.485   1.681
 3240TIP3   OH217846   2.565   3.234   0.543
 3240TIP3    H117847   2.623   3.183   0.602
 3240TIP3    H217848   2.578   3.325   0.580
 3241TIP3   OH217849   2.232   2.941   0.601
 3241TIP3    H117850   2.151   2.977   0.643
 3241TIP3    H217851   2.278   3.023   0.573
 3242TIP3   OH217852   3.064   2.201   1.628
 3242TIP3    H117853   3.096   2.251   1.707
 3242TIP3    H217854   3.007   2.132   1.668
 3243TIP3   OH217855   3.079   2.201   0.831
 3243TIP3    H117856   3.105   2.243   0.745
 3243TIP3    H217857   3.128   2.253   0.898
 3244TIP3   OH217858   2.875   3.436   0.638
 3244TIP3    H117859   2.790   3.452   0.681
 3244TIP3    H217860   2.890   3.520   0.592
 3245TIP3   OH217861   2.800   2.376   0.820
 3245TIP3    H117862   2.856   2.451   0.844
 3245TIP3    H217863   2.785   2.334   0.908
 3246TIP3   OH217864   2.889   2.502   1.785
 3246TIP3    H117865   2.884   2.537   1.876
 3246TIP3    H217866   2.921   2.412   1.803
 3247TIP3   OH217867   2.860   2.063   0.892
 3247TIP3    H117868   2.820   2.118   0.962
 3247TIP3    H217869   2.942   2.116   0.873
 3248TIP3   OH217870   2.589   3.483   0.651
 3248TIP3    H117871   2.603   3.567   0.602
 3248TIP3    H217872   2.554   3.516   0.737
 3249TIP3   OH217873   2.470   2.192   0.582
 3249TIP3    H117874   2.451   2.254   0.654
 3249TIP3    H217875   2.565   2.172   0.594
 3250TIP3   OH217876   3.438   2.249   1.863
 3250TIP3    H117877   3.353   2.240   1.817
 3250TIP3    H217878   3.496   2.280   1.791
 3251TIP3   OH217879   3.345   2.604   1.231
 3251TIP3    H117880   3.272   2.553   1.270
 3251TIP3    H217881   3.422   2.575   1.285
 3252TIP3   OH217882   2.298   3.180   0.485
 3252TIP3    H117883   2.382   3.223   0.513
 3252TIP3    H217884   2.323   3.150   0.395
 3253TIP3   OH217885   2.128   2.506   0.447
 3253TIP3    H117886   2.133   2.596   0.481
 3253TIP3    H217887   2.054   2.511   0.384
 3254TIP3   OH217888   3.408   3.551   1.408
 3254TIP3    H117889   3.418   3.609   1.330
 3254TIP3    H217890   3.504   3.542   1.427
 3255TIP3   OH217891   2.176   1.972   1.321
 3255TIP3    H117892   2.177   1.950   1.226
 3255TIP3    H217893   2.146   1.886   1.357
 3256TIP3   OH217894   2.042   3.279   0.827
 3256TIP3    H117895   2.010   3.323   0.907
 3256TIP3    H217896   2.073   3.357   0.775
 3257TIP3   OH217897   1.998   3.646   2.052
 3257TIP3    H117898   2.066   3.638   2.123
 3257TIP3    H217899   1.966   3.554   2.048
 3258TIP3   OH217900   2.475   3.521   2.183
 3258TIP3    H117901   2.562   3.485   2.209
 3258TIP3    H217902   2.457   3.471   2.101
 3259TIP3   OH217903   3.113   3.399   2.090
 3259TIP3    H117904   3.076   3.314   2.124
 3259TIP3    H217905   3.198   3.404   2.138
 3260TIP3   OH217906   3.357   3.457   0.375
 3260TIP3    H117907   3.339   3.365   0.403
 3260TIP3    H217908   3.432   3.446   0.313
 3261TIP3   OH217909   1.964   3.010   2.159
 3261TIP3    H117910   1.902   2.945   2.197
 3261TIP3    H217911   1.922   3.029   2.071
 3262TIP3   OH217912   2.388   3.015   0.265
 3262TIP3    H117913   2.382   2.945   0.331
 3262TIP3    H217914   2.483   3.019   0.241
 3263TIP3   OH217915   2.660   3.008   2.038
 3263TIP3    H117916   2.632   3.068   1.965
 3263TIP3    H217917   2.666   2.919   1.995
 3264TIP3   OH217918   3.224   2.997   1.834
 3264TIP3    H117919   3.308   3.047   1.825
 3264TIP3    H217920   3.170   3.070   1.868
 3265TIP3   OH217921   2.084   2.698   2.101
 3265TIP3    H117922   2.152   2.630   2.088
 3265TIP3    H217923   2.123   2.753   2.173
 3266TIP3   OH217924   2.608   2.855   0.594
 3266TIP3    H117925   2.531   2.800   0.613
 3266TIP3    H217926   2.654   2.804   0.524
 3267TIP3   OH217927   2.447   2.622   1.763
 3267TIP3    H117928   2.393   2.692   1.804
 3267TIP3    H217929   2.519   2.677   1.726
 3268TIP3   OH217930   2.735   2.680   0.391
 3268TIP3    H117931   2.749   2.710   0.300
 3268TIP3    H217932   2.826   2.659   0.419
 3269TIP3   OH217933   3.037   2.933   2.156
 3269TIP3    H117934   3.112   2.887   2.114
 3269TIP3    H217935   2.984   2.859   2.191
 3270TIP3   OH217936   3.561   2.898   0.312
 3270TIP3    H117937   3.575   2.857   0.225
 3270TIP3    H217938   3.535   2.990   0.285
 3271TIP3   OH217939   2.558   2.406   1.877
 3271TIP3    H117940   2.566   2.337   1.807
 3271TIP3    H217941   2.528   2.484   1.827
 3272TIP3   OH217942   2.591   2.202   1.689
 3272TIP3    H117943   2.661   2.251   1.640
 3272TIP3    H217944   2.517   2.211   1.626
 3273TIP3   OH217945   2.676   2.792   1.698
 3273TIP3    H117946   2.766   2.819   1.673
 3273TIP3    H217947   2.622   2.857   1.650
 3274TIP3   OH217948   3.181   2.489   2.163
 3274TIP3    H117949   3.203   2.395   2.174
 3274TIP3    H217950   3.262   2.523   2.120
 3275TIP3   OH217951   3.309   2.834   2.038
 3275TIP3    H117952   3.276   2.879   1.957
 3275TIP3    H217953   3.400   2.810   2.012
 3276TIP3   OH217954   2.384   2.452   2.095
 3276TIP3    H117955   2.305   2.397   2.077
 3276TIP3    H217956   2.445   2.425   2.023
 3277TIP3   OH217957   2.659   1.943   1.676
 3277TIP3    H117958   2.631   2.037   1.688
 3277TIP3    H217959   2.573   1.902   1.659
 3278TIP3   OH217960   2.751   2.368   2.113
 3278TIP3    H117961   2.690   2.343   2.186
 3278TIP3    H217962   2.689   2.365   2.037
 3279TIP3   OH217963   2.998   2.284   2.035
 3279TIP3    H117964   2.907   2.306   2.062
 3279TIP3    H217965   3.036   2.252   2.119
 3280TIP3   OH217966   3.210   2.174   2.204
 3280TIP3    H117967   3.191   2.078   2.196
 3280TIP3    H217968   3.186   2.190   2.297
 3281TIP3   OH217969   2.173   2.271   2.128
 3281TIP3    H117970   2.150   2.190   2.077
 3281TIP3    H217971   2.146   2.246   2.220
 3282TIP3   OH217972   2.629   1.924   1.950
 3282TIP3    H117973   2.689   1.853   1.978
 3282TIP3    H217974   2.632   1.912   1.854
 3283TIP3   OH217975   2.631   2.036   2.254
 3283TIP3    H117976   2.631   1.998   2.165
 3283TIP3    H217977   2.593   2.125   2.236
 3284TIP3   OH217978   2.650   3.740   0.511
 3284TIP3    H117979   2.730   3.772   0.555
 3284TIP3    H217980   2.668   3.761   0.418
 3285TIP3   OH217981   1.995   3.209   0.450
 3285TIP3    H117982   2.075   3.259   0.471
 3285TIP3    H217983   2.020   3.168   0.365
 3286TIP3   OH217984   1.880   3.720   0.970
 3286TIP3    H117985   1.828   3.666   0.907
 3286TIP3    H217986   1.903   3.652   1.037
 3287TIP3   OH217987   1.961   3.534   1.149
 3287TIP3    H117988   1.896   3.467   1.175
 3287TIP3    H217989   1.977   3.575   1.238
 3288TIP3   OH217990   3.672   3.549   1.420
 3288TIP3    H117991   3.726   3.596   1.487
 3288TIP3    H217992   3.724   3.560   1.340
 3289TIP3   OH217993   3.667   3.564   1.731
 3289TIP3    H117994   3.638   3.482   1.684
 3289TIP3    H217995   3.690   3.526   1.818
 3290TIP3   OH217996   3.537   3.160   2.242
 3290TIP3    H117997   3.451   3.162   2.290
 3290TIP3    H217998   3.584   3.239   2.276
 3291TIP3   OH217999   3.613   3.023   0.735
 3291TIP3    H118000   3.705   3.052   0.748
 3291TIP3    H218001   3.611   2.943   0.793
 3292TIP3   OH218002   3.695   2.806   0.926
 3292TIP3    H118003   3.608   2.765   0.949
 3292TIP3    H218004   3.745   2.796   1.009
 3293TIP3   OH218005   3.640   3.071   1.408
 3293TIP3    H118006   3.713   3.008   1.388
 3293TIP3    H218007   3.665   3.149   1.356
 3294TIP3   OH218008   3.534   3.335   1.659
 3294TIP3    H118009   3.458   3.386   1.693
 3294TIP3    H218010   3.499   3.303   1.573
 3295TIP3   OH218011   3.733   2.853   0.520
 3295TIP3    H118012   3.675   2.858   0.440
 3295TIP3    H218013   3.684   2.910   0.582
 3296TIP3   OH218014   3.624   2.508   0.425
 3296TIP3    H118015   3.637   2.558   0.341
 3296TIP3    H218016   3.621   2.417   0.394
 3297TIP3   OH218017   3.472   2.664   1.000
 3297TIP3    H118018   3.416   2.605   0.946
 3297TIP3    H218019   3.443   2.641   1.092
 3298TIP3   OH218020   1.962   2.884   1.400
 3298TIP3    H118021   1.949   2.835   1.316
 3298TIP3    H218022   2.049   2.845   1.428
 3299TIP3   OH218023   3.591   2.817   1.956
 3299TIP3    H118024   3.638   2.732   1.976
 3299TIP3    H218025   3.665   2.876   1.932
 3300TIP3   OH218026   3.680   2.561   2.000
 3300TIP3    H118027   3.594   2.517   2.022
 3300TIP3    H218028   3.744   2.489   2.019
 3301TIP3   OH218029   3.410   2.425   0.843
 3301TIP3    H118030   3.408   2.328   0.847
 3301TIP3    H218031   3.504   2.433   0.822
 3302TIP3   OH218032   3.536   2.489   1.377
 3302TIP3    H118033   3.634   2.481   1.381
 3302TIP3    H218034   3.517   2.492   1.474
 3303TIP3   OH218035   3.506   2.536   1.640
 3303TIP3    H118036   3.421   2.561   1.680
 3303TIP3    H218037   3.553   2.622   1.631
 3304TIP3   OH218038   1.974   2.372   1.996
 3304TIP3    H118039   2.039   2.362   2.069
 3304TIP3    H218040   1.916   2.292   2.010
 3305TIP3   OH218041   3.765   1.986   2.174
 3305TIP3    H118042   3.801   1.907   2.129
 3305TIP3    H218043   3.734   2.042   2.100
 3306TIP3   OH218044   3.454   2.137   0.855
 3306TIP3    H118045   3.526   2.099   0.909
 3306TIP3    H218046   3.404   2.057   0.827
 3307TIP3   OH218047   2.052   2.197   1.392
 3307TIP3    H118048   2.094   2.113   1.364
 3307TIP3    H218049   2.122   2.263   1.381
 3308TIP3   OH218050   1.900   2.502   1.417
 3308TIP3    H118051   1.954   2.471   1.341
 3308TIP3    H218052   1.940   2.588   1.432
 3309TIP3   OH218053   3.649   2.160   2.002
 3309TIP3    H118054   3.563   2.204   1.982
 3309TIP3    H218055   3.644   2.091   1.932
 3310TIP3   OH218056   3.693   2.147   0.482
 3310TIP3    H118057   3.759   2.090   0.438
 3310TIP3    H218058   3.738   2.188   0.557
 3311TIP3   OH218059   1.933   2.122   0.805
 3311TIP3    H118060   1.844   2.086   0.793
 3311TIP3    H218061   1.941   2.189   0.734
 3312TIP3   OH218062   3.377   3.669   0.990
 3312TIP3    H118063   3.459   3.648   0.940
 3312TIP3    H218064   3.412   3.713   1.070
 3313TIP3   OH218065   1.908   1.990   1.644
 3313TIP3    H118066   1.843   1.941   1.698
 3313TIP3    H218067   1.850   2.053   1.598
 3314TIP3   OH218068   2.136   3.296   2.046
 3314TIP3    H118069   2.053   3.336   2.014
 3314TIP3    H218070   2.111   3.204   2.058
 3315TIP3   OH218071   2.435   3.460   1.708
 3315TIP3    H118072   2.420   3.548   1.667
 3315TIP3    H218073   2.532   3.455   1.704
 3316TIP3   OH218074   2.834   3.576   1.951
 3316TIP3    H118075   2.842   3.554   2.046
 3316TIP3    H218076   2.921   3.617   1.935
 3317TIP3   OH218077   3.060   3.724   1.906
 3317TIP3    H118078   3.138   3.699   1.854
 3317TIP3    H218079   3.098   3.734   1.996
 3318TIP3   OH218080   3.576   1.941   1.833
 3318TIP3    H118081   3.504   1.975   1.779
 3318TIP3    H218082   3.588   1.851   1.795
 3319TIP3   OH218083   2.180   3.755   1.702
 3319TIP3    H118084   2.093   3.785   1.667
 3319TIP3    H218085   2.167   3.773   1.797
 3320TIP3   OH218086   2.405   3.699   1.586
 3320TIP3    H118087   2.312   3.720   1.612
 3320TIP3    H218088   2.427   3.780   1.535
 3321TIP3   OH218089   2.887   3.653   1.488
 3321TIP3    H118090   2.810   3.691   1.440
 3321TIP3    H218091   2.899   3.723   1.557
 3322TIP3   OH218092   3.084   3.543   1.641
 3322TIP3    H118093   3.021   3.565   1.569
 3322TIP3    H218094   3.145   3.619   1.626
 3323TIP3   OH218095   3.275   3.738   1.562
 3323TIP3    H118096   3.313   3.825   1.539
 3323TIP3    H218097   3.325   3.681   1.499
 3324TIP3   OH218098   2.142   3.586   1.368
 3324TIP3    H118099   2.144   3.535   1.452
 3324TIP3    H218100   2.221   3.550   1.322
 3325TIP3   OH218101   2.344   3.460   1.244
 3325TIP3    H118102   2.333   3.367   1.275
 3325TIP3    H218103   2.431   3.477   1.288
 3326TIP3   OH218104   2.564   3.470   1.376
 3326TIP3    H118105   2.607   3.383   1.372
 3326TIP3    H218106   2.586   3.502   1.465
 3327TIP3   OH218107   2.865   2.093   1.221
 3327TIP3    H118108   2.782   2.048   1.247
 3327TIP3    H218109   2.928   2.021   1.227
 3328TIP3   OH218110   3.449   1.921   1.235
 3328TIP3    H118111   3.521   1.965   1.184
 3328TIP3    H218112   3.371   1.967   1.198
 3329TIP3   OH218113   3.633   2.001   1.042
 3329TIP3    H118114   3.700   1.937   1.008
 3329TIP3    H218115   3.685   2.084   1.057
 3330TIP3   OH218116   2.167   1.920   1.040
 3330TIP3    H118117   2.083   1.906   0.990
 3330TIP3    H218118   2.212   1.833   1.025
 3331TIP3   OH218119   2.021   1.937   0.608
 3331TIP3    H118120   2.053   2.013   0.557
 3331TIP3    H218121   2.001   1.976   0.695
 3332TIP3   OH218122   2.615   1.864   1.018
 3332TIP3    H118123   2.707   1.878   0.990
 3332TIP3    H218124   2.613   1.905   1.106
 3333TIP3   OH218125   3.194   1.933   1.107
 3333TIP3    H118126   3.160   1.966   1.022
 3333TIP3    H218127   3.130   1.862   1.130
 3334TIP3   OH218128   3.316   1.944   0.718
 3334TIP3    H118129   3.247   1.981   0.661
 3334TIP3    H218130   3.268   1.873   0.767
 3335TIP3   OH218131   2.050   3.515   0.698
 3335TIP3    H118132   1.963   3.509   0.652
 3335TIP3    H218133   2.067   3.609   0.677
 3336TIP3   OH218134   2.197   2.176   0.402
 3336TIP3    H118135   2.239   2.097   0.363
 3336TIP3    H218136   2.256   2.195   0.476
 3337TIP3   OH218137   2.760   2.158   0.654
 3337TIP3    H118138   2.788   2.101   0.729
 3337TIP3    H218139   2.769   2.246   0.697
 3338TIP3   OH218140   2.965   3.751   0.549
 3338TIP3    H118141   3.041   3.691   0.527
 3338TIP3    H218142   2.949   3.787   0.460
 3339TIP3   OH218143   3.572   3.614   0.823
 3339TIP3    H118144   3.560   3.536   0.764
 3339TIP3    H218145   3.574   3.689   0.758
 3340TIP3   OH218146   2.123   2.021   1.982
 3340TIP3    H118147   2.072   1.938   1.992
 3340TIP3    H218148   2.198   2.005   2.044
 3341TIP3   OH218149   2.324   1.949   2.163
 3341TIP3    H118150   2.414   1.931   2.131
 3341TIP3    H218151   2.300   1.861   2.196
 3342TIP3   OH218152   2.216   3.644   0.413
 3342TIP3    H118153   2.176   3.655   0.502
 3342TIP3    H218154   2.275   3.569   0.427
 3343TIP3   OH218155   3.172   1.897   2.164
 3343TIP3    H118156   3.178   1.838   2.242
 3343TIP3    H218157   3.266   1.891   2.133
 3344TIP3   OH218158   3.519   3.517   1.997
 3344TIP3    H118159   3.466   3.509   1.915
 3344TIP3    H218160   3.486   3.601   2.033
 3345TIP3   OH218161   4.043   2.751   1.544
 3345TIP3    H118162   3.991   2.704   1.613
 3345TIP3    H218163   4.115   2.789   1.599
 3346TIP3   OH218164   4.174   3.234   1.386
 3346TIP3    H118165   4.120   3.161   1.349
 3346TIP3    H218166   4.263   3.198   1.360
 3347TIP3   OH218167   3.826   2.554   0.903
 3347TIP3    H118168   3.803   2.648   0.913
 3347TIP3    H218169   3.739   2.513   0.891
 3348TIP3   OH218170   3.882   2.757   1.174
 3348TIP3    H118171   3.916   2.665   1.166
 3348TIP3    H218172   3.955   2.812   1.141
 3349TIP3   OH218173   4.289   2.280   1.137
 3349TIP3    H118174   4.387   2.263   1.133
 3349TIP3    H218175   4.255   2.218   1.068
 3350TIP3   OH218176   3.955   2.490   1.189
 3350TIP3    H118177   4.029   2.461   1.246
 3350TIP3    H218178   3.977   2.446   1.104
 3351TIP3   OH218179   4.227   2.174   1.549
 3351TIP3    H118180   4.188   2.224   1.474
 3351TIP3    H218181   4.157   2.189   1.615
 3352TIP3   OH218182   4.412   2.919   1.566
 3352TIP3    H118183   4.358   3.001   1.571
 3352TIP3    H218184   4.483   2.940   1.501
 3353TIP3   OH218185   4.166   2.377   1.365
 3353TIP3    H118186   4.230   2.437   1.409
 3353TIP3    H218187   4.214   2.355   1.281
 3354TIP3   OH218188   4.306   3.163   1.631
 3354TIP3    H118189   4.256   3.208   1.560
 3354TIP3    H218190   4.237   3.162   1.701
 3355TIP3   OH218191   3.887   3.112   0.734
 3355TIP3    H118192   3.879   3.154   0.646
 3355TIP3    H218193   3.888   3.186   0.797
 3356TIP3   OH218194   4.321   2.856   1.060
 3356TIP3    H118195   4.316   2.834   0.965
 3356TIP3    H218196   4.397   2.800   1.088
 3357TIP3   OH218197   4.408   3.140   1.300
 3357TIP3    H118198   4.430   3.170   1.210
 3357TIP3    H218199   4.484   3.177   1.351
 3358TIP3   OH218200   4.350   2.733   1.376
 3358TIP3    H118201   4.373   2.792   1.302
 3358TIP3    H218202   4.378   2.790   1.451
 3359TIP3   OH218203   4.493   3.202   1.893
 3359TIP3    H118204   4.421   3.265   1.913
 3359TIP3    H218205   4.471   3.178   1.801
 3360TIP3   OH218206   4.166   2.805   1.784
 3360TIP3    H118207   4.191   2.882   1.837
 3360TIP3    H218208   4.075   2.785   1.816
 3361TIP3   OH218209   4.291   3.365   1.961
 3361TIP3    H118210   4.275   3.400   1.870
 3361TIP3    H218211   4.200   3.345   1.990
 3362TIP3   OH218212   4.270   2.798   0.785
 3362TIP3    H118213   4.212   2.867   0.744
 3362TIP3    H218214   4.202   2.740   0.821
 3363TIP3   OH218215   3.857   3.030   1.707
 3363TIP3    H118216   3.810   3.019   1.624
 3363TIP3    H218217   3.884   2.937   1.727
 3364TIP3   OH218218   3.833   3.301   1.351
 3364TIP3    H118219   3.921   3.264   1.360
 3364TIP3    H218220   3.831   3.364   1.424
 3365TIP3   OH218221   4.151   3.586   0.989
 3365TIP3    H118222   4.154   3.541   1.077
 3365TIP3    H218223   4.076   3.539   0.949
 3366TIP3   OH218224   4.084   3.152   1.804
 3366TIP3    H118225   4.092   3.116   1.895
 3366TIP3    H218226   3.995   3.119   1.776
 3367TIP3   OH218227   4.337   1.952   1.407
 3367TIP3    H118228   4.251   1.940   1.362
 3367TIP3    H218229   4.319   2.034   1.456
 3368TIP3   OH218230   4.250   2.567   1.581
 3368TIP3    H118231   4.162   2.600   1.558
 3368TIP3    H218232   4.302   2.614   1.511
 3369TIP3   OH218233   4.273   2.540   1.038
 3369TIP3    H118234   4.261   2.448   1.071
 3369TIP3    H218235   4.285   2.530   0.944
 3370TIP3   OH218236   4.019   2.540   1.723
 3370TIP3    H118237   4.113   2.535   1.748
 3370TIP3    H218238   4.009   2.451   1.685
 3371TIP3   OH218239   4.492   2.249   0.387
 3371TIP3    H118240   4.421   2.190   0.417
 3371TIP3    H218241   4.482   2.320   0.451
 3372TIP3   OH218242   3.769   2.228   1.072
 3372TIP3    H118243   3.794   2.246   1.164
 3372TIP3    H218244   3.838   2.277   1.024
 3373TIP3   OH218245   3.941   2.281   0.623
 3373TIP3    H118246   3.992   2.282   0.540
 3373TIP3    H218247   3.896   2.367   0.620
 3374TIP3   OH218248   4.005   2.348   0.954
 3374TIP3    H118249   3.962   2.409   0.891
 3374TIP3    H218250   4.073   2.302   0.902
 3375TIP3   OH218251   4.390   2.459   0.742
 3375TIP3    H118252   4.463   2.513   0.778
 3375TIP3    H218253   4.350   2.523   0.681
 3376TIP3   OH218254   4.276   2.606   0.495
 3376TIP3    H118255   4.191   2.565   0.515
 3376TIP3    H218256   4.278   2.592   0.397
 3377TIP3   OH218257   4.073   3.041   2.048
 3377TIP3    H118258   4.149   3.037   2.111
 3377TIP3    H218259   4.001   3.008   2.104
 3378TIP3   OH218260   4.211   2.107   0.946
 3378TIP3    H118261   4.129   2.075   0.991
 3378TIP3    H218262   4.266   2.028   0.946
 3379TIP3   OH218263   4.138   2.967   1.259
 3379TIP3    H118264   4.196   2.959   1.180
 3379TIP3    H218265   4.171   2.897   1.316
 3380TIP3   OH218266   3.875   2.783   1.803
 3380TIP3    H118267   3.862   2.732   1.886
 3380TIP3    H218268   3.815   2.737   1.741
 3381TIP3   OH218269   4.385   3.306   1.028
 3381TIP3    H118270   4.395   3.390   0.981
 3381TIP3    H218271   4.289   3.296   1.022
 3382TIP3   OH218272   3.972   2.802   0.394
 3382TIP3    H118273   4.013   2.871   0.448
 3382TIP3    H218274   3.882   2.805   0.433
 3383TIP3   OH218275   4.408   3.554   0.917
 3383TIP3    H118276   4.311   3.567   0.929
 3383TIP3    H218277   4.439   3.561   1.009
 3384TIP3   OH218278   4.026   2.257   1.750
 3384TIP3    H118279   3.979   2.305   1.821
 3384TIP3    H218280   3.998   2.166   1.768
 3385TIP3   OH218281   3.972   3.426   1.599
 3385TIP3    H118282   4.040   3.359   1.618
 3385TIP3    H218283   3.983   3.487   1.674
 3386TIP3   OH218284   4.415   3.232   0.602
 3386TIP3    H118285   4.434   3.316   0.647
 3386TIP3    H218286   4.492   3.222   0.542
 3387TIP3   OH218287   4.112   2.978   0.660
 3387TIP3    H118288   4.031   3.013   0.703
 3387TIP3    H218289   4.136   3.054   0.603
 3388TIP3   OH218290   4.398   3.549   0.620
 3388TIP3    H118291   4.432   3.632   0.584
 3388TIP3    H218292   4.392   3.566   0.716
 3389TIP3   OH218293   4.275   2.230   0.604
 3389TIP3    H118294   4.296   2.314   0.649
 3389TIP3    H218295   4.327   2.170   0.661
 3390TIP3   OH218296   4.158   3.208   0.496
 3390TIP3    H118297   4.243   3.235   0.537
 3390TIP3    H218298   4.194   3.153   0.422
 3391TIP3   OH218299   4.006   2.522   0.436
 3391TIP3    H118300   4.005   2.620   0.433
 3391TIP3    H218301   3.919   2.505   0.395
 3392TIP3   OH218302   4.071   1.957   1.326
 3392TIP3    H118303   4.060   1.931   1.232
 3392TIP3    H218304   4.015   1.889   1.370
 3393TIP3   OH218305   3.921   3.382   0.913
 3393TIP3    H118306   3.854   3.441   0.950
 3393TIP3    H218307   3.932   3.422   0.823
 3394TIP3   OH218308   3.880   3.634   2.048
 3394TIP3    H118309   3.961   3.605   2.093
 3394TIP3    H218310   3.835   3.549   2.033
 3395TIP3   OH218311   4.398   3.502   2.184
 3395TIP3    H118312   4.405   3.429   2.246
 3395TIP3    H218313   4.356   3.460   2.107
 3396TIP3   OH218314   3.834   3.067   2.191
 3396TIP3    H118315   3.769   3.003   2.225
 3396TIP3    H218316   3.797   3.080   2.101
 3397TIP3   OH218317   4.305   3.033   0.341
 3397TIP3    H118318   4.316   2.958   0.403
 3397TIP3    H218319   4.395   3.066   0.337
 3398TIP3   OH218320   3.928   2.723   2.114
 3398TIP3    H118321   3.940   2.631   2.139
 3398TIP3    H218322   3.965   2.770   2.192
 3399TIP3   OH218323   4.417   2.847   0.553
 3399TIP3    H118324   4.380   2.854   0.643
 3399TIP3    H218325   4.380   2.760   0.527
 3400TIP3   OH218326   4.352   2.617   1.837
 3400TIP3    H118327   4.285   2.688   1.827
 3400TIP3    H218328   4.353   2.586   1.745
 3401TIP3   OH218329   4.346   2.349   1.920
 3401TIP3    H118330   4.365   2.301   1.837
 3401TIP3    H218331   4.340   2.440   1.885
 3402TIP3   OH218332   4.447   2.284   1.684
 3402TIP3    H118333   4.508   2.309   1.613
 3402TIP3    H218334   4.374   2.245   1.632
 3403TIP3   OH218335   4.267   2.508   2.178
 3403TIP3    H118336   4.199   2.450   2.137
 3403TIP3    H218337   4.323   2.531   2.103
 3404TIP3   OH218338   4.075   2.309   2.111
 3404TIP3    H118339   4.099   2.235   2.053
 3404TIP3    H218340   4.073   2.267   2.200
 3405TIP3   OH218341   3.887   3.191   0.465
 3405TIP3    H118342   3.980   3.216   0.487
 3405TIP3    H218343   3.901   3.142   0.383
 3406TIP3   OH218344   3.777   3.691   0.962
 3406TIP3    H118345   3.707   3.639   0.916
 3406TIP3    H218346   3.794   3.634   1.040
 3407TIP3   OH218347   3.843   3.527   1.160
 3407TIP3    H118348   3.818   3.437   1.189
 3407TIP3    H218349   3.904   3.553   1.233
 3408TIP3   OH218350   3.837   2.877   1.409
 3408TIP3    H118351   3.846   2.826   1.324
 3408TIP3    H218352   3.928   2.864   1.443
 3409TIP3   OH218353   3.840   2.342   1.983
 3409TIP3    H118354   3.908   2.327   2.051
 3409TIP3    H218355   3.780   2.267   2.001
 3410TIP3   OH218356   3.946   2.192   1.367
 3410TIP3    H118357   3.989   2.106   1.348
 3410TIP3    H218358   4.019   2.255   1.354
 3411TIP3   OH218359   3.803   2.495   1.416
 3411TIP3    H118360   3.858   2.485   1.336
 3411TIP3    H218361   3.832   2.581   1.450
 3412TIP3   OH218362   3.852   2.067   0.779
 3412TIP3    H118363   3.771   2.104   0.815
 3412TIP3    H218364   3.896   2.147   0.744
 3413TIP3   OH218365   3.778   1.992   1.624
 3413TIP3    H118366   3.712   1.961   1.688
 3413TIP3    H218367   3.729   2.052   1.565
 3414TIP3   OH218368   4.031   3.314   2.070
 3414TIP3    H118369   3.946   3.340   2.030
 3414TIP3    H218370   4.018   3.220   2.089
 3415TIP3   OH218371   4.295   3.443   1.707
 3415TIP3    H118372   4.281   3.532   1.666
 3415TIP3    H218373   4.387   3.427   1.680
 3416TIP3   OH218374   4.049   3.739   1.687
 3416TIP3    H118375   3.970   3.786   1.653
 3416TIP3    H218376   4.048   3.768   1.779
 3417TIP3   OH218377   4.263   3.658   1.567
 3417TIP3    H118378   4.175   3.694   1.597
 3417TIP3    H218379   4.287   3.724   1.500
 3418TIP3   OH218380   4.007   3.552   1.363
 3418TIP3    H118381   3.995   3.509   1.451
 3418TIP3    H218382   4.095   3.517   1.338
 3419TIP3   OH218383   4.212   3.440   1.214
 3419TIP3    H118384   4.186   3.360   1.266
 3419TIP3    H218385   4.294   3.461   1.266
 3420TIP3   OH218386   4.406   3.489   1.385
 3420TIP3    H118387   4.438   3.410   1.433
 3420TIP3    H218388   4.399   3.554   1.457
 3421TIP3   OH218389   4.029   1.924   1.057
 3421TIP3    H118390   3.943   1.890   1.025
 3421TIP3    H218391   4.090   1.859   1.017
 3422TIP3   OH218392   3.956   1.928   0.572
 3422TIP3    H118393   3.993   2.010   0.537
 3422TIP3    H218394   3.907   1.961   0.650
 3423TIP3   OH218395   3.912   3.542   0.705
 3423TIP3    H118396   3.819   3.546   0.675
 3423TIP3    H218397   3.946   3.620   0.656
 3424TIP3   OH218398   4.120   2.170   0.393
 3424TIP3    H118399   4.153   2.081   0.366
 3424TIP3    H218400   4.172   2.192   0.473
 3425TIP3   OH218401   4.019   2.017   1.967
 3425TIP3    H118402   3.971   1.935   1.983
 3425TIP3    H218403   4.094   2.005   2.029
 3426TIP3   OH218404   4.213   1.957   2.155
 3426TIP3    H118405   4.302   1.930   2.125
 3426TIP3    H218406   4.185   1.878   2.207
 3427TIP3   OH218407   4.128   3.604   0.395
 3427TIP3    H118408   4.079   3.638   0.472
 3427TIP3    H218409   4.208   3.570   0.438
 3428TIP3   OH218410   0.085   0.026   0.950
 3428TIP3    H118411   0.052   0.115   0.929
 3428TIP3    H218412   0.039  -0.026   0.882
 3429TIP3   OH218413   1.757   4.020   1.449
 3429TIP3    H118414   1.773   4.098   1.506
 3429TIP3    H218415   1.827   4.028   1.382
 3430TIP3   OH218416   1.303   4.360   1.473
 3430TIP3    H118417   1.294   4.262   1.473
 3430TIP3    H218418   1.223   4.385   1.423
 3431TIP3   OH218419   0.561   4.120   1.137
 3431TIP3    H118420   0.568   4.213   1.107
 3431TIP3    H218421   0.508   4.081   1.065
 3432TIP3   OH218422   1.346   4.230   0.985
 3432TIP3    H118423   1.385   4.187   1.064
 3432TIP3    H218424   1.426   4.234   0.928
 3433TIP3   OH218425   0.251   4.354   1.213
 3433TIP3    H118426   0.316   4.301   1.264
 3433TIP3    H218427   0.253   4.309   1.125
 3434TIP3   OH218428   1.773   4.195   1.684
 3434TIP3    H118429   1.720   4.257   1.629
 3434TIP3    H218430   1.820   4.259   1.740
 3435TIP3   OH218431   0.423   4.075   1.560
 3435TIP3    H118432   0.394   4.133   1.487
 3435TIP3    H218433   0.364   4.099   1.635
 3436TIP3   OH218434   1.484   4.126   1.181
 3436TIP3    H118435   1.517   4.050   1.230
 3436TIP3    H218436   1.554   4.191   1.205
 3437TIP3   OH218437   0.439   4.236   1.351
 3437TIP3    H118438   0.499   4.308   1.377
 3437TIP3    H218439   0.493   4.187   1.284
 3438TIP3   OH218440   1.487   4.015   1.532
 3438TIP3    H118441   1.411   4.042   1.476
 3438TIP3    H218442   1.566   4.036   1.477
 3439TIP3   OH218443   0.783   3.750   1.338
 3439TIP3    H118444   0.756   3.716   1.251
 3439TIP3    H218445   0.701   3.798   1.362
 3440TIP3   OH218446   1.654   3.749   0.596
 3440TIP3    H118447   1.576   3.783   0.645
 3440TIP3    H218448   1.699   3.834   0.575
 3441TIP3   OH218449   1.517   4.348   2.033
 3441TIP3    H118450   1.461   4.366   1.955
 3441TIP3    H218451   1.542   4.255   2.019
 3442TIP3   OH218452   0.560   3.901   1.384
 3442TIP3    H118453   0.478   3.908   1.329
 3442TIP3    H218454   0.541   3.967   1.452
 3443TIP3   OH218455   1.026   3.835   1.676
 3443TIP3    H118456   1.051   3.793   1.761
 3443TIP3    H218457   0.927   3.833   1.679
 3444TIP3   OH218458   1.321   4.283   1.834
 3444TIP3    H118459   1.253   4.247   1.896
 3444TIP3    H218460   1.264   4.324   1.767
 3445TIP3   OH218461   0.994   4.134   0.445
 3445TIP3    H118462   0.942   4.124   0.527
 3445TIP3    H218463   0.946   4.071   0.388
 3446TIP3   OH218464   0.612   4.387   1.515
 3446TIP3    H118465   0.546   4.398   1.588
 3446TIP3    H218466   0.611   4.477   1.477
 3447TIP3   OH218467   0.545   4.386   1.051
 3447TIP3    H118468   0.478   4.395   0.982
 3447TIP3    H218469   0.623   4.429   1.009
 3448TIP3   OH218470   1.137  -0.005   0.907
 3448TIP3    H118471   1.103   0.084   0.883
 3448TIP3    H218472   1.180  -0.036   0.823
 3449TIP3   OH218473   1.031   4.451   2.045
 3449TIP3    H118474   1.008   4.382   2.110
 3449TIP3    H218475   1.118   4.479   2.075
 3450TIP3   OH218476   1.110   4.362   1.138
 3450TIP3    H118477   1.097   4.407   1.051
 3450TIP3    H218478   1.180   4.299   1.112
 3451TIP3   OH218479   0.428   4.412   1.706
 3451TIP3    H118480   0.349   4.465   1.727
 3451TIP3    H218481   0.388   4.323   1.716
 3452TIP3   OH218482   0.643   4.127   0.340
 3452TIP3    H118483   0.619   4.103   0.432
 3452TIP3    H218484   0.569   4.182   0.309
 3453TIP3   OH218485   0.056   4.107   1.098
 3453TIP3    H118486   0.094   4.113   1.189
 3453TIP3    H218487   0.036   4.011   1.093
 3454TIP3   OH218488   0.143   4.217   0.635
 3454TIP3    H118489   0.205   4.228   0.560
 3454TIP3    H218490   0.060   4.205   0.586
 3455TIP3   OH218491   0.878   4.141   1.110
 3455TIP3    H118492   0.786   4.149   1.143
 3455TIP3    H218493   0.916   4.073   1.171
 3456TIP3   OH218494   0.283   4.244   0.978
 3456TIP3    H118495   0.194   4.218   0.951
 3456TIP3    H218496   0.336   4.164   0.958
 3457TIP3   OH218497   0.656   4.293   0.752
 3457TIP3    H118498   0.738   4.337   0.777
 3457TIP3    H218499   0.608   4.362   0.705
 3458TIP3   OH218500   1.254   4.087   1.421
 3458TIP3    H118501   1.179   4.052   1.471
 3458TIP3    H218502   1.227   4.084   1.328
 3459TIP3   OH218503   0.528   4.387   0.451
 3459TIP3    H118504   0.471   4.337   0.391
 3459TIP3    H218505   0.616   4.367   0.415
 3460TIP3   OH218506   0.976   4.385   1.367
 3460TIP3    H118507   1.012   4.377   1.275
 3460TIP3    H218508   0.947   4.294   1.382
 3461TIP3   OH218509   0.409   4.011   0.940
 3461TIP3    H118510   0.373   3.923   0.966
 3461TIP3    H218511   0.456   3.991   0.858
 3462TIP3   OH218512   0.820   4.215   1.506
 3462TIP3    H118513   0.755   4.288   1.493
 3462TIP3    H218514   0.881   4.255   1.571
 3463TIP3   OH218515   1.217   4.172   0.579
 3463TIP3    H118516   1.135   4.149   0.530
 3463TIP3    H218517   1.261   4.221   0.508
 3464TIP3   OH218518   1.283   4.408   0.692
 3464TIP3    H118519   1.276   4.312   0.678
 3464TIP3    H218520   1.346   4.436   0.623
 3465TIP3   OH218521   1.802   4.324   0.620
 3465TIP3    H118522   1.735   4.318   0.547
 3465TIP3    H218523   1.776   4.412   0.657
 3466TIP3   OH218524   0.289   4.176   1.784
 3466TIP3    H118525   0.237   4.225   1.851
 3466TIP3    H218526   0.283   4.086   1.819
 3467TIP3   OH218527   1.147   4.068   1.693
 3467TIP3    H118528   1.217   4.037   1.752
 3467TIP3    H218529   1.093   3.987   1.685
 3468TIP3   OH218530   1.206   4.066   0.828
 3468TIP3    H118531   1.213   4.105   0.738
 3468TIP3    H218532   1.259   4.129   0.882
 3469TIP3   OH218533   0.956   4.240   0.846
 3469TIP3    H118534   1.005   4.322   0.862
 3469TIP3    H218535   0.915   4.224   0.933
 3470TIP3   OH218536   0.997   4.292   1.739
 3470TIP3    H118537   0.955   4.252   1.816
 3470TIP3    H218538   1.063   4.223   1.716
 3471TIP3   OH218539   0.998   3.934   0.924
 3471TIP3    H118540   0.959   4.002   0.982
 3471TIP3    H218541   1.074   3.987   0.890
 3472TIP3   OH218542   0.615   4.067   0.610
 3472TIP3    H118543   0.598   4.144   0.669
 3472TIP3    H218544   0.706   4.043   0.638
 3473TIP3   OH218545   1.576   4.114   1.867
 3473TIP3    H118546   1.485   4.135   1.843
 3473TIP3    H218547   1.625   4.140   1.787
 3474TIP3   OH218548   0.185   4.340   0.390
 3474TIP3    H118549   0.192   4.417   0.451
 3474TIP3    H218550   0.090   4.317   0.396
 3475TIP3   OH218551   0.322   3.865   1.277
 3475TIP3    H118552   0.301   3.830   1.188
 3475TIP3    H218553   0.305   3.785   1.332
 3476TIP3   OH218554   0.637   4.221   1.899
 3476TIP3    H118555   0.647   4.151   1.832
 3476TIP3    H218556   0.654   4.300   1.846
 3477TIP3   OH218557   0.662   4.078   1.667
 3477TIP3    H118558   0.726   4.117   1.602
 3477TIP3    H218559   0.577   4.099   1.624
 3478TIP3   OH218560   1.290   4.324   2.218
 3478TIP3    H118561   1.247   4.244   2.184
 3478TIP3    H218562   1.383   4.294   2.222
 3479TIP3   OH218563   0.500   4.323   2.102
 3479TIP3    H118564   0.426   4.259   2.102
 3479TIP3    H218565   0.555   4.290   2.027
 3480TIP3   OH218566   0.758   3.823   1.660
 3480TIP3    H118567   0.707   3.907   1.660
 3480TIP3    H218568   0.689   3.758   1.639
 3481TIP3   OH218569   0.877   4.223   2.092
 3481TIP3    H118570   0.821   4.202   2.169
 3481TIP3    H218571   0.808   4.238   2.025
 3482TIP3   OH218572   1.147   4.172   2.007
 3482TIP3    H118573   1.060   4.204   2.039
 3482TIP3    H218574   1.167   4.101   2.072
 3483TIP3   OH218575   1.264   4.009   2.195
 3483TIP3    H118576   1.290   3.915   2.180
 3483TIP3    H218577   1.285   4.021   2.289
 3484TIP3   OH218578   0.280   4.159   2.126
 3484TIP3    H118579   0.282   4.086   2.061
 3484TIP3    H218580   0.237   4.114   2.203
 3485TIP3   OH218581   0.743   3.796   1.945
 3485TIP3    H118582   0.815   3.733   1.956
 3485TIP3    H218583   0.738   3.800   1.848
 3486TIP3   OH218584   0.824   3.914   2.190
 3486TIP3    H118585   0.787   3.865   2.113
 3486TIP3    H218586   0.773   3.997   2.182
 3487TIP3   OH218587   1.628   4.318   0.418
 3487TIP3    H118588   1.650   4.361   0.334
 3487TIP3    H218589   1.637   4.225   0.394
 3488TIP3   OH218590   1.568   4.223   0.829
 3488TIP3    H118591   1.616   4.138   0.829
 3488TIP3    H218592   1.636   4.287   0.805
 3489TIP3   OH218593   1.666   4.283   1.343
 3489TIP3    H118594   1.752   4.329   1.355
 3489TIP3    H218595   1.605   4.354   1.368
 3490TIP3   OH218596   1.587   4.390   1.625
 3490TIP3    H118597   1.492   4.369   1.624
 3490TIP3    H218598   1.583   4.477   1.580
 3491TIP3   OH218599   0.117   4.344   2.012
 3491TIP3    H118600   0.168   4.287   2.073
 3491TIP3    H218601   0.033   4.294   2.005
 3492TIP3   OH218602   1.831   3.836   2.162
 3492TIP3    H118603   1.878   3.769   2.108
 3492TIP3    H218604   1.841   3.917   2.108
 3493TIP3   OH218605   1.669   3.965   0.836
 3493TIP3    H118606   1.671   3.951   0.933
 3493TIP3    H218607   1.583   3.923   0.812
 3494TIP3   OH218608   0.137   4.062   1.351
 3494TIP3    H118609   0.216   4.004   1.341
 3494TIP3    H218610   0.174   4.149   1.374
 3495TIP3   OH218611   0.041   4.355   1.374
 3495TIP3    H118612   0.111   4.364   1.306
 3495TIP3    H218613   0.027   4.445   1.406
 3496TIP3   OH218614   1.805   4.073   2.038
 3496TIP3    H118615   1.718   4.103   2.071
 3496TIP3    H218616   1.779   4.045   1.948
 3497TIP3   OH218617   1.786   3.990   0.535
 3497TIP3    H118618   1.818   3.959   0.448
 3497TIP3    H218619   1.857   4.050   0.563
 3498TIP3   OH218620   0.040   3.991   0.763
 3498TIP3    H118621   0.024   3.985   0.858
 3498TIP3    H218622   0.090   4.075   0.755
 3499TIP3   OH218623   0.052   3.841   1.638
 3499TIP3    H118624  -0.002   3.907   1.684
 3499TIP3    H218625   0.044   3.874   1.547
 3500TIP3   OH218626   1.694   3.813   1.825
 3500TIP3    H118627   1.644   3.883   1.779
 3500TIP3    H218628   1.684   3.736   1.767
 3501TIP3   OH218629   0.969   3.918   1.245
 3501TIP3    H118630   0.893   3.866   1.278
 3501TIP3    H218631   1.031   3.848   1.221
 3502TIP3   OH218632   1.562   3.755   1.226
 3502TIP3    H118633   1.626   3.819   1.188
 3502TIP3    H218634   1.474   3.794   1.203
 3503TIP3   OH218635   1.726   3.917   1.093
 3503TIP3    H118636   1.786   3.854   1.045
 3503TIP3    H218637   1.791   3.990   1.111
 3504TIP3   OH218638   0.281   3.786   1.022
 3504TIP3    H118639   0.188   3.781   0.993
 3504TIP3    H218640   0.311   3.693   1.012
 3505TIP3   OH218641   0.156   3.786   0.619
 3505TIP3    H118642   0.207   3.826   0.547
 3505TIP3    H218643   0.119   3.867   0.660
 3506TIP3   OH218644   0.727   3.765   1.029
 3506TIP3    H118645   0.805   3.785   0.975
 3506TIP3    H218646   0.682   3.850   1.036
 3507TIP3   OH218647   1.309   3.803   1.133
 3507TIP3    H118648   1.264   3.827   1.051
 3507TIP3    H218649   1.252   3.731   1.166
 3508TIP3   OH218650   1.442   3.831   0.747
 3508TIP3    H118651   1.361   3.877   0.772
 3508TIP3    H218652   1.417   3.742   0.782
 3509TIP3   OH218653   0.285   4.006   0.453
 3509TIP3    H118654   0.338   3.946   0.399
 3509TIP3    H218655   0.348   4.035   0.519
 3510TIP3   OH218656   0.880   4.033   0.678
 3510TIP3    H118657   0.927   3.970   0.735
 3510TIP3    H218658   0.890   4.114   0.733
 3511TIP3   OH218659   0.273   3.918   1.952
 3511TIP3    H118660   0.218   3.840   1.973
 3511TIP3    H218661   0.348   3.898   2.013
 3512TIP3   OH218662   0.449   3.840   2.146
 3512TIP3    H118663   0.541   3.813   2.130
 3512TIP3    H218664   0.414   3.757   2.183
 3513TIP3   OH218665   1.298   3.748   2.166
 3513TIP3    H118666   1.301   3.699   2.251
 3513TIP3    H218667   1.390   3.733   2.137
 3514TIP3   OH218668   1.993  -0.016   0.868
 3514TIP3    H118669   1.946   0.068   0.850
 3514TIP3    H218670   1.977  -0.067   0.788
 3515TIP3   OH218671   3.701   4.046   1.442
 3515TIP3    H118672   3.675   4.117   1.504
 3515TIP3    H218673   3.773   4.088   1.391
 3516TIP3   OH218674   3.182   4.346   1.481
 3516TIP3    H118675   3.159   4.252   1.470
 3516TIP3    H218676   3.113   4.388   1.427
 3517TIP3   OH218677   2.481   4.108   1.102
 3517TIP3    H118678   2.462   4.201   1.077
 3517TIP3    H218679   2.414   4.062   1.047
 3518TIP3   OH218680   3.226   4.250   0.989
 3518TIP3    H118681   3.277   4.198   1.057
 3518TIP3    H218682   3.301   4.276   0.931
 3519TIP3   OH218683   2.115   4.358   1.219
 3519TIP3    H118684   2.180   4.303   1.269
 3519TIP3    H218685   2.116   4.306   1.135
 3520TIP3   OH218686   3.655   4.191   1.682
 3520TIP3    H118687   3.591   4.249   1.631
 3520TIP3    H218688   3.709   4.258   1.725
 3521TIP3   OH218689   2.325   4.049   1.552
 3521TIP3    H118690   2.277   4.097   1.483
 3521TIP3    H218691   2.267   4.060   1.629
 3522TIP3   OH218692   3.397   4.122   1.144
 3522TIP3    H118693   3.406   4.054   1.213
 3522TIP3    H218694   3.464   4.186   1.174
 3523TIP3   OH218695   2.301   4.218   1.341
 3523TIP3    H118696   2.351   4.294   1.380
 3523TIP3    H218697   2.364   4.184   1.274
 3524TIP3   OH218698   3.381   4.052   1.529
 3524TIP3    H118699   3.320   4.111   1.481
 3524TIP3    H218700   3.464   4.076   1.485
 3525TIP3   OH218701   2.673   3.752   1.353
 3525TIP3    H118702   2.644   3.675   1.301
 3525TIP3    H218703   2.588   3.804   1.353
 3526TIP3   OH218704   3.583   3.789   0.624
 3526TIP3    H118705   3.485   3.795   0.626
 3526TIP3    H218706   3.603   3.882   0.601
 3527TIP3   OH218707   3.405   4.373   2.035
 3527TIP3    H118708   3.359   4.413   1.960
 3527TIP3    H218709   3.434   4.290   1.992
 3528TIP3   OH218710   2.451   3.896   1.373
 3528TIP3    H118711   2.364   3.876   1.332
 3528TIP3    H218712   2.422   3.968   1.433
 3529TIP3   OH218713   2.916   3.827   1.703
 3529TIP3    H118714   2.952   3.795   1.789
 3529TIP3    H218715   2.818   3.824   1.720
 3530TIP3   OH218716   3.187   4.271   1.835
 3530TIP3    H118717   3.114   4.254   1.897
 3530TIP3    H218718   3.144   4.323   1.766
 3531TIP3   OH218719   2.889   4.128   0.450
 3531TIP3    H118720   2.836   4.118   0.532
 3531TIP3    H218721   2.837   4.073   0.388
 3532TIP3   OH218722   2.449   4.354   1.529
 3532TIP3    H118723   2.362   4.368   1.572
 3532TIP3    H218724   2.460   4.442   1.485
 3533TIP3   OH218725   2.427   4.379   1.056
 3533TIP3    H118726   2.350   4.406   1.003
 3533TIP3    H218727   2.499   4.434   1.021
 3534TIP3   OH218728   2.993  -0.005   0.890
 3534TIP3    H118729   2.972   0.088   0.866
 3534TIP3    H218730   3.044  -0.034   0.811
 3535TIP3   OH218731   2.920   4.456   2.047
 3535TIP3    H118732   2.886   4.398   2.118
 3535TIP3    H218733   3.015   4.455   2.065
 3536TIP3   OH218734   3.012   4.375   1.130
 3536TIP3    H118735   2.976   4.412   1.046
 3536TIP3    H218736   3.084   4.320   1.092
 3537TIP3   OH218737   2.187   4.397   1.625
 3537TIP3    H118738   2.138   4.460   1.680
 3537TIP3    H218739   2.190   4.316   1.681
 3538TIP3   OH218740   2.541   4.127   0.352
 3538TIP3    H118741   2.513   4.098   0.442
 3538TIP3    H218742   2.457   4.137   0.306
 3539TIP3   OH218743   1.915   4.093   1.119
 3539TIP3    H118744   1.980   4.089   1.192
 3539TIP3    H218745   1.971   4.084   1.039
 3540TIP3   OH218746   2.017   4.168   0.620
 3540TIP3    H118747   2.076   4.217   0.561
 3540TIP3    H218748   1.938   4.226   0.609
 3541TIP3   OH218749   2.774   4.141   1.092
 3541TIP3    H118750   2.678   4.133   1.111
 3541TIP3    H218751   2.810   4.085   1.165
 3542TIP3   OH218752   2.149   4.218   0.993
 3542TIP3    H118753   2.074   4.213   0.930
 3542TIP3    H218754   2.210   4.152   0.953
 3543TIP3   OH218755   2.552   4.280   0.753
 3543TIP3    H118756   2.640   4.306   0.784
 3543TIP3    H218757   2.513   4.362   0.721
 3544TIP3   OH218758   3.127   4.085   1.417
 3544TIP3    H118759   3.068   4.054   1.489
 3544TIP3    H218760   3.135   4.010   1.358
 3545TIP3   OH218761   2.421   4.397   0.457
 3545TIP3    H118762   2.352   4.345   0.415
 3545TIP3    H218763   2.501   4.351   0.426
 3546TIP3   OH218764   2.876   4.389   1.362
 3546TIP3    H118765   2.918   4.382   1.273
 3546TIP3    H218766   2.833   4.301   1.368
 3547TIP3   OH218767   2.303   3.981   0.940
 3547TIP3    H118768   2.258   3.905   0.984
 3547TIP3    H218769   2.337   3.941   0.859
 3548TIP3   OH218770   2.693   4.223   1.498
 3548TIP3    H118771   2.617   4.283   1.488
 3548TIP3    H218772   2.751   4.275   1.557
 3549TIP3   OH218773   3.115   4.159   0.584
 3549TIP3    H118774   3.034   4.145   0.528
 3549TIP3    H218775   3.179   4.183   0.516
 3550TIP3   OH218776   3.143   4.410   0.681
 3550TIP3    H118777   3.132   4.312   0.683
 3550TIP3    H218778   3.183   4.423   0.594
 3551TIP3   OH218779   3.689   4.327   0.631
 3551TIP3    H118780   3.629   4.281   0.569
 3551TIP3    H218781   3.639   4.413   0.641
 3552TIP3   OH218782   2.169   4.154   1.781
 3552TIP3    H118783   2.090   4.182   1.832
 3552TIP3    H218784   2.183   4.066   1.820
 3553TIP3   OH218785   3.021   4.081   1.680
 3553TIP3    H118786   3.102   4.068   1.730
 3553TIP3    H218787   2.976   3.993   1.689
 3554TIP3   OH218788   3.092   4.059   0.834
 3554TIP3    H118789   3.105   4.091   0.742
 3554TIP3    H218790   3.136   4.129   0.885
 3555TIP3   OH218791   2.847   4.250   0.853
 3555TIP3    H118792   2.898   4.333   0.869
 3555TIP3    H218793   2.828   4.220   0.945
 3556TIP3   OH218794   2.886   4.303   1.766
 3556TIP3    H118795   2.878   4.268   1.856
 3556TIP3    H218796   2.942   4.235   1.724
 3557TIP3   OH218797   2.856   3.944   0.926
 3557TIP3    H118798   2.814   4.014   0.979
 3557TIP3    H218799   2.943   3.987   0.905
 3558TIP3   OH218800   2.481   4.066   0.612
 3558TIP3    H118801   2.481   4.145   0.670
 3558TIP3    H218802   2.570   4.033   0.633
 3559TIP3   OH218803   3.458   4.160   1.875
 3559TIP3    H118804   3.369   4.178   1.837
 3559TIP3    H218805   3.514   4.160   1.794
 3560TIP3   OH218806   2.118   4.346   0.408
 3560TIP3    H118807   2.119   4.412   0.481
 3560TIP3    H218808   2.029   4.365   0.372
 3561TIP3   OH218809   2.198   3.844   1.312
 3561TIP3    H118810   2.179   3.815   1.221
 3561TIP3    H218811   2.180   3.759   1.359
 3562TIP3   OH218812   2.535   4.205   1.882
 3562TIP3    H118813   2.549   4.136   1.813
 3562TIP3    H218814   2.553   4.286   1.832
 3563TIP3   OH218815   2.565   4.050   1.666
 3563TIP3    H118816   2.621   4.097   1.600
 3563TIP3    H218817   2.476   4.073   1.630
 3564TIP3   OH218818   3.184   4.337   2.206
 3564TIP3    H118819   3.127   4.259   2.203
 3564TIP3    H218820   3.272   4.297   2.189
 3565TIP3   OH218821   2.390   4.325   2.082
 3565TIP3    H118822   2.310   4.270   2.066
 3565TIP3    H218823   2.452   4.283   2.017
 3566TIP3   OH218824   2.650   3.800   1.700
 3566TIP3    H118825   2.612   3.891   1.693
 3566TIP3    H218826   2.577   3.748   1.664
 3567TIP3   OH218827   2.749   4.231   2.096
 3567TIP3    H118828   2.687   4.216   2.171
 3567TIP3    H218829   2.687   4.231   2.022
 3568TIP3   OH218830   3.000   4.175   2.012
 3568TIP3    H118831   2.911   4.199   2.044
 3568TIP3    H218832   3.032   4.115   2.082
 3569TIP3   OH218833   3.164   4.007   2.208
 3569TIP3    H118834   3.176   3.913   2.179
 3569TIP3    H218835   3.174   4.000   2.303
 3570TIP3   OH218836   2.157   4.176   2.088
 3570TIP3    H118837   2.130   4.093   2.045
 3570TIP3    H218838   2.128   4.160   2.181
 3571TIP3   OH218839   2.605   3.776   1.985
 3571TIP3    H118840   2.679   3.719   2.009
 3571TIP3    H218841   2.608   3.764   1.888
 3572TIP3   OH218842   2.687   3.930   2.224
 3572TIP3    H118843   2.649   3.872   2.155
 3572TIP3    H218844   2.647   4.014   2.197
 3573TIP3   OH218845   3.522   4.323   0.409
 3573TIP3    H118846   3.523   4.397   0.346
 3573TIP3    H218847   3.591   4.266   0.373
 3574TIP3   OH218848   3.449   4.243   0.829
 3574TIP3    H118849   3.468   4.148   0.848
 3574TIP3    H218850   3.537   4.280   0.821
 3575TIP3   OH218851   3.542   4.279   1.351
 3575TIP3    H118852   3.628   4.327   1.354
 3575TIP3    H218853   3.482   4.354   1.364
 3576TIP3   OH218854   3.472   4.376   1.624
 3576TIP3    H118855   3.376   4.385   1.609
 3576TIP3    H218856   3.498   4.461   1.584
 3577TIP3   OH218857   1.952   4.320   1.963
 3577TIP3    H118858   2.019   4.296   2.030
 3577TIP3    H218859   1.885   4.252   1.984
 3578TIP3   OH218860   3.735   3.823   2.189
 3578TIP3    H118861   3.793   3.761   2.139
 3578TIP3    H218862   3.723   3.891   2.119
 3579TIP3   OH218863   3.506   3.970   0.836
 3579TIP3    H118864   3.523   3.922   0.920
 3579TIP3    H218865   3.430   3.919   0.799
 3580TIP3   OH218866   2.057   4.069   1.350
 3580TIP3    H118867   2.101   3.981   1.343
 3580TIP3    H218868   2.132   4.130   1.358
 3581TIP3   OH218869   1.901   4.419   1.371
 3581TIP3    H118870   1.971   4.379   1.315
 3581TIP3    H218871   1.950   4.469   1.438
 3582TIP3   OH218872   3.695   4.029   2.013
 3582TIP3    H118873   3.618   4.068   2.060
 3582TIP3    H218874   3.651   3.989   1.936
 3583TIP3   OH218875   3.706   4.007   0.507
 3583TIP3    H118876   3.751   3.959   0.435
 3583TIP3    H218877   3.779   4.057   0.549
 3584TIP3   OH218878   1.940   4.059   0.858
 3584TIP3    H118879   1.849   4.024   0.853
 3584TIP3    H218880   1.953   4.091   0.766
 3585TIP3   OH218881   1.939   3.852   1.657
 3585TIP3    H118882   1.869   3.826   1.720
 3585TIP3    H218883   1.901   3.930   1.615
 3586TIP3   OH218884   3.582   3.819   1.831
 3586TIP3    H118885   3.531   3.871   1.767
 3586TIP3    H218886   3.588   3.730   1.788
 3587TIP3   OH218887   2.845   3.957   1.277
 3587TIP3    H118888   2.780   3.889   1.306
 3587TIP3    H218889   2.928   3.907   1.276
 3588TIP3   OH218890   3.450   3.752   1.239
 3588TIP3    H118891   3.515   3.813   1.196
 3588TIP3    H218892   3.362   3.793   1.221
 3589TIP3   OH218893   3.617   3.882   1.068
 3589TIP3    H118894   3.684   3.824   1.025
 3589TIP3    H218895   3.670   3.966   1.078
 3590TIP3   OH218896   2.159   3.767   1.045
 3590TIP3    H118897   2.073   3.762   0.998
 3590TIP3    H218898   2.193   3.675   1.037
 3591TIP3   OH218899   2.058   3.783   0.609
 3591TIP3    H118900   2.099   3.855   0.555
 3591TIP3    H218901   1.999   3.833   0.669
 3592TIP3   OH218902   2.600   3.780   1.033
 3592TIP3    H118903   2.689   3.784   0.999
 3592TIP3    H218904   2.584   3.870   1.063
 3593TIP3   OH218905   3.184   3.827   1.161
 3593TIP3    H118906   3.156   3.853   1.071
 3593TIP3    H218907   3.139   3.739   1.170
 3594TIP3   OH218908   3.330   3.819   0.713
 3594TIP3    H118909   3.243   3.860   0.702
 3594TIP3    H218910   3.304   3.744   0.772
 3595TIP3   OH218911   2.220   3.955   0.467
 3595TIP3    H118912   2.294   3.893   0.458
 3595TIP3    H218913   2.256   4.019   0.530
 3596TIP3   OH218914   2.771   4.045   0.688
 3596TIP3    H118915   2.805   3.985   0.758
 3596TIP3    H218916   2.777   4.128   0.739
 3597TIP3   OH218917   2.131   3.890   1.987
 3597TIP3    H118918   2.086   3.804   1.999
 3597TIP3    H218919   2.200   3.886   2.057
 3598TIP3   OH218920   2.336   3.826   2.172
 3598TIP3    H118921   2.421   3.800   2.132
 3598TIP3    H218922   2.303   3.738   2.200
 3599TIP3   OH218923   3.180   3.749   2.153
 3599TIP3    H118924   3.175   3.697   2.235
 3599TIP3    H218925   3.274   3.731   2.130
 3600TIP3   OH218926   3.820  -0.009   0.874
 3600TIP3    H118927   3.792   0.083   0.853
 3600TIP3    H218928   3.798  -0.052   0.789
 3601TIP3   OH218929   4.294   4.209   1.120
 3601TIP3    H118930   4.388   4.176   1.120
 3601TIP3    H218931   4.249   4.147   1.060
 3602TIP3   OH218932   3.950   4.343   1.224
 3602TIP3    H118933   4.009   4.272   1.257
 3602TIP3    H218934   3.928   4.311   1.135
 3603TIP3   OH218935   4.187   4.031   1.566
 3603TIP3    H118936   4.152   4.088   1.494
 3603TIP3    H218937   4.135   4.060   1.642
 3604TIP3   OH218938   4.165   4.221   1.359
 3604TIP3    H118939   4.220   4.277   1.419
 3604TIP3    H218940   4.218   4.228   1.276
 3605TIP3   OH218941   4.293   3.877   1.375
 3605TIP3    H118942   4.201   3.870   1.344
 3605TIP3    H218943   4.281   3.936   1.452
 3606TIP3   OH218944   4.253   4.360   1.562
 3606TIP3    H118945   4.189   4.396   1.628
 3606TIP3    H218946   4.270   4.438   1.504
 3607TIP3   OH218947   4.230   4.436   0.980
 3607TIP3    H118948   4.239   4.353   1.033
 3607TIP3    H218949   4.306   4.425   0.920
 3608TIP3   OH218950   4.070   4.411   1.743
 3608TIP3    H118951   4.052   4.463   1.824
 3608TIP3    H218952   4.064   4.319   1.773
 3609TIP3   OH218953   4.422   4.241   0.393
 3609TIP3    H118954   4.387   4.159   0.434
 3609TIP3    H218955   4.348   4.264   0.333
 3610TIP3   OH218956   3.791   4.085   1.108
 3610TIP3    H118957   3.871   4.071   1.161
 3610TIP3    H218958   3.822   4.080   1.015
 3611TIP3   OH218959   3.897   4.170   0.622
 3611TIP3    H118960   3.959   4.202   0.555
 3611TIP3    H218961   3.828   4.241   0.619
 3612TIP3   OH218962   4.019   4.225   0.970
 3612TIP3    H118963   3.977   4.272   0.895
 3612TIP3    H218964   4.060   4.147   0.927
 3613TIP3   OH218965   4.434   4.387   0.767
 3613TIP3    H118966   4.515   4.349   0.726
 3613TIP3    H218967   4.386   4.419   0.687
 3614TIP3   OH218968   4.292   4.448   0.530
 3614TIP3    H118969   4.213   4.441   0.472
 3614TIP3    H218970   4.363   4.412   0.475
 3615TIP3   OH218971   4.193   4.015   0.940
 3615TIP3    H118972   4.123   3.960   0.981
 3615TIP3    H218973   4.265   3.950   0.939
 3616TIP3   OH218974   4.045   4.147   1.784
 3616TIP3    H118975   3.956   4.148   1.746
 3616TIP3    H218976   4.043   4.062   1.833
 3617TIP3   OH218977   4.326   4.092   0.600
 3617TIP3    H118978   4.299   4.162   0.663
 3617TIP3    H218979   4.389   4.044   0.659
 3618TIP3   OH218980   4.050   4.366   0.444
 3618TIP3    H118981   4.001   4.436   0.493
 3618TIP3    H218982   3.980   4.321   0.395
 3619TIP3   OH218983   4.039   3.813   1.312
 3619TIP3    H118984   4.034   3.808   1.214
 3619TIP3    H218985   4.007   3.724   1.338
 3620TIP3   OH218986   4.408   4.183   1.897
 3620TIP3    H118987   4.436   4.110   1.836
 3620TIP3    H218988   4.385   4.246   1.826
 3621TIP3   OH218989   4.435   4.084   1.657
 3621TIP3    H118990   4.470   4.132   1.581
 3621TIP3    H218991   4.340   4.080   1.634
 3622TIP3   OH218992   4.273   4.306   2.092
 3622TIP3    H118993   4.187   4.259   2.088
 3622TIP3    H218994   4.317   4.266   2.014
 3623TIP3   OH218995   4.039   4.169   2.100
 3623TIP3    H118996   4.014   4.087   2.053
 3623TIP3    H218997   4.021   4.146   2.193
 3624TIP3   OH218998   3.761   4.308   1.978
 3624TIP3    H118999   3.846   4.279   2.016
 3624TIP3    H219000   3.714   4.222   1.979
 3625TIP3   OH219001   3.954   4.065   1.329
 3625TIP3    H119002   3.977   3.969   1.333
 3625TIP3    H219003   4.040   4.109   1.339
 3626TIP3   OH219004   3.770   4.424   1.390
 3626TIP3    H119005   3.839   4.380   1.335
 3626TIP3    H219006   3.820   4.478   1.452
 3627TIP3   OH219007   3.781   4.057   0.848
 3627TIP3    H119008   3.695   4.029   0.811
 3627TIP3    H219009   3.819   4.106   0.774
 3628TIP3   OH219010   3.815   3.865   1.634
 3628TIP3    H119011   3.737   3.840   1.687
 3628TIP3    H219012   3.775   3.914   1.559
 3629TIP3   OH219013   4.030   3.808   1.038
 3629TIP3    H119014   3.942   3.794   0.996
 3629TIP3    H219015   4.077   3.725   1.014
 3630TIP3   OH219016   3.953   3.789   0.580
 3630TIP3    H119017   3.979   3.880   0.555
 3630TIP3    H219018   3.870   3.802   0.628
 3631TIP3   OH219019   4.110   4.030   0.410
 3631TIP3    H119020   4.151   3.949   0.370
 3631TIP3    H219021   4.176   4.057   0.476
 3632TIP3   OH219022   4.029   3.904   1.957
 3632TIP3    H119023   3.976   3.827   1.983
 3632TIP3    H219024   4.110   3.893   2.013
 3633TIP3   OH219025   4.213   3.851   2.139
 3633TIP3    H119026   4.297   3.808   2.115
 3633TIP3    H219027   4.170   3.781   2.192
 3634TIP3   OH219028   1.236   1.003   2.889
 3634TIP3    H119029   1.244   1.084   2.943
 3634TIP3    H219030   1.161   1.025   2.831
 3635TIP3   OH219031   1.121   0.862   3.222
 3635TIP3    H119032   1.105   0.844   3.317
 3635TIP3    H219033   1.034   0.842   3.182
 3636TIP3   OH219034   0.341   0.859   3.426
 3636TIP3    H119035   0.299   0.771   3.430
 3636TIP3    H219036   0.427   0.842   3.381
 3637TIP3   OH219037   1.384   1.181   3.063
 3637TIP3    H119038   1.378   1.110   3.130
 3637TIP3    H219039   1.418   1.255   3.115
 3638TIP3   OH219040   0.421   1.316   3.233
 3638TIP3    H119041   0.385   1.232   3.197
 3638TIP3    H219042   0.517   1.300   3.218
 3639TIP3   OH219043   0.092   0.668   2.795
 3639TIP3    H119044   0.091   0.765   2.804
 3639TIP3    H219045   0.070   0.639   2.886
 3640TIP3   OH219046   0.096   0.872   2.993
 3640TIP3    H119047   0.123   0.802   3.057
 3640TIP3    H219048   0.178   0.922   2.981
 3641TIP3   OH219049   1.152   1.734   3.062
 3641TIP3    H119050   1.220   1.680   3.014
 3641TIP3    H219051   1.134   1.671   3.133
 3642TIP3   OH219052   0.898   1.125   3.357
 3642TIP3    H119053   0.913   1.124   3.262
 3642TIP3    H219054   0.985   1.159   3.389
 3643TIP3   OH219055   1.753   0.310   3.354
 3643TIP3    H119056   1.774   0.381   3.420
 3643TIP3    H219057   1.830   0.315   3.296
 3644TIP3   OH219058   1.270   0.610   3.354
 3644TIP3    H119059   1.296   0.521   3.383
 3644TIP3    H219060   1.278   0.603   3.257
 3645TIP3   OH219061   0.552   0.371   3.006
 3645TIP3    H119062   0.565   0.459   2.964
 3645TIP3    H219063   0.500   0.329   2.938
 3646TIP3   OH219064   1.287   0.396   2.887
 3646TIP3    H119065   1.343   0.381   2.966
 3646TIP3    H219066   1.317   0.485   2.862
 3647TIP3   OH219067   0.294   0.682   3.109
 3647TIP3    H119068   0.363   0.624   3.146
 3647TIP3    H219069   0.287   0.640   3.021
 3648TIP3   OH219070   0.688   0.819   3.071
 3648TIP3    H119071   0.770   0.777   3.105
 3648TIP3    H219072   0.653   0.744   3.019
 3649TIP3   OH219073   1.794   0.461   3.578
 3649TIP3    H119074   1.745   0.547   3.577
 3649TIP3    H219075   1.805   0.442   3.673
 3650TIP3   OH219076   0.503   0.312   3.447
 3650TIP3    H119077   0.469   0.361   3.368
 3650TIP3    H219078   0.422   0.309   3.501
 3651TIP3   OH219079   1.122   1.254   2.774
 3651TIP3    H119080   1.078   1.225   2.692
 3651TIP3    H219081   1.117   1.352   2.766
 3652TIP3   OH219082   0.658   1.052   3.460
 3652TIP3    H119083   0.609   1.133   3.485
 3652TIP3    H219084   0.736   1.092   3.414
 3653TIP3   OH219085   1.511   0.418   3.114
 3653TIP3    H119086   1.522   0.329   3.153
 3653TIP3    H219087   1.557   0.470   3.183
 3654TIP3   OH219088   0.442   0.470   3.237
 3654TIP3    H119089   0.515   0.521   3.277
 3654TIP3    H219090   0.485   0.428   3.159
 3655TIP3   OH219091   0.552   1.278   3.526
 3655TIP3    H119092   0.546   1.331   3.445
 3655TIP3    H219093   0.470   1.304   3.573
 3656TIP3   OH219094   0.161   1.214   2.561
 3656TIP3    H119095   0.143   1.297   2.515
 3656TIP3    H219096   0.136   1.240   2.651
 3657TIP3   OH219097   1.496   1.417   3.270
 3657TIP3    H119098   1.401   1.417   3.295
 3657TIP3    H219099   1.503   1.511   3.247
 3658TIP3   OH219100   1.525   0.158   3.437
 3658TIP3    H119101   1.445   0.170   3.381
 3658TIP3    H219102   1.594   0.196   3.377
 3659TIP3   OH219103   0.820   0.076   3.144
 3659TIP3    H119104   0.863   0.016   3.209
 3659TIP3    H219105   0.743   0.107   3.198
 3660TIP3   OH219106   1.318   1.563   2.949
 3660TIP3    H119107   1.341   1.484   2.896
 3660TIP3    H219108   1.397   1.620   2.932
 3661TIP3   OH219109   1.428   1.357   2.803
 3661TIP3    H119110   1.417   1.296   2.728
 3661TIP3    H219111   1.415   1.297   2.879
 3662TIP3   OH219112   1.610   1.261   3.697
 3662TIP3    H119113   1.632   1.191   3.632
 3662TIP3    H219114   1.601   1.337   3.636
 3663TIP3   OH219115   1.051   0.924   2.631
 3663TIP3    H119116   1.013   1.011   2.612
 3663TIP3    H219117   1.092   0.898   2.547
 3664TIP3   OH219118   1.083   0.854   2.328
 3664TIP3    H119119   1.170   0.858   2.373
 3664TIP3    H219120   1.084   0.759   2.307
 3665TIP3   OH219121   1.798   0.882   3.452
 3665TIP3    H119122   1.734   0.955   3.463
 3665TIP3    H219123   1.839   0.906   3.367
 3666TIP3   OH219124   1.423   0.875   2.735
 3666TIP3    H119125   1.356   0.919   2.793
 3666TIP3    H219126   1.487   0.841   2.801
 3667TIP3   OH219127   1.379   0.706   3.624
 3667TIP3    H119128   1.369   0.783   3.682
 3667TIP3    H219129   1.304   0.717   3.563
 3668TIP3   OH219130   0.591   1.006   2.922
 3668TIP3    H119131   0.548   0.965   2.844
 3668TIP3    H219132   0.633   0.930   2.969
 3669TIP3   OH219133   0.696   1.285   3.196
 3669TIP3    H119134   0.696   1.297   3.099
 3669TIP3    H219135   0.789   1.294   3.218
 3670TIP3   OH219136   0.586   0.850   3.314
 3670TIP3    H119137   0.622   0.861   3.224
 3670TIP3    H219138   0.623   0.927   3.365
 3671TIP3   OH219139   1.247   1.433   3.370
 3671TIP3    H119140   1.211   1.490   3.441
 3671TIP3    H219141   1.222   1.345   3.406
 3672TIP3   OH219142   0.695   1.326   3.746
 3672TIP3    H119143   0.633   1.400   3.744
 3672TIP3    H219144   0.664   1.280   3.665
 3673TIP3   OH219145   1.292   0.857   2.502
 3673TIP3    H119146   1.342   0.872   2.586
 3673TIP3    H219147   1.345   0.912   2.438
 3674TIP3   OH219148   0.414   0.932   3.683
 3674TIP3    H119149   0.464   0.986   3.620
 3674TIP3    H219150   0.348   0.891   3.624
 3675TIP3   OH219151   1.065   1.528   2.790
 3675TIP3    H119152   1.076   1.539   2.885
 3675TIP3    H219153   1.032   1.617   2.763
 3676TIP3   OH219154   0.470   1.509   3.799
 3676TIP3    H119155   0.492   1.550   3.712
 3676TIP3    H219156   0.422   1.429   3.769
 3677TIP3   OH219157   1.680   0.071   2.570
 3677TIP3    H119158   1.586   0.041   2.577
 3677TIP3    H219159   1.683   0.112   2.481
 3678TIP3   OH219160   0.432   0.897   2.727
 3678TIP3    H119161   0.419   0.969   2.663
 3678TIP3    H219162   0.441   0.822   2.667
 3679TIP3   OH219163   1.797   1.463   2.369
 3679TIP3    H119164   1.814   1.558   2.384
 3679TIP3    H219165   1.889   1.429   2.376
 3680TIP3   OH219166   0.149   1.159   3.558
 3680TIP3    H119167   0.053   1.150   3.541
 3680TIP3    H219168   0.165   1.064   3.579
 3681TIP3   OH219169   0.114   1.403   3.316
 3681TIP3    H119170   0.193   1.358   3.282
 3681TIP3    H219171   0.155   1.457   3.387
 3682TIP3   OH219172   1.832   1.453   3.800
 3682TIP3    H119173   1.782   1.398   3.738
 3682TIP3    H219174   1.759   1.487   3.855
 3683TIP3   OH219175   0.969   1.407   3.731
 3683TIP3    H119176   0.995   1.456   3.810
 3683TIP3    H219177   0.874   1.388   3.748
 3684TIP3   OH219178   1.015   1.782   2.680
 3684TIP3    H119179   1.024   1.795   2.583
 3684TIP3    H219180   0.995   1.875   2.706
 3685TIP3   OH219181   0.387   1.677   2.870
 3685TIP3    H119182   0.399   1.638   2.959
 3685TIP3    H219183   0.298   1.648   2.847
 3686TIP3   OH219184   1.324   1.729   2.376
 3686TIP3    H119185   1.375   1.656   2.334
 3686TIP3    H219186   1.329   1.706   2.472
 3687TIP3   OH219187   1.279   1.716   2.646
 3687TIP3    H119188   1.185   1.736   2.664
 3687TIP3    H219189   1.293   1.642   2.708
 3688TIP3   OH219190   1.539   0.597   3.877
 3688TIP3    H119191   1.487   0.679   3.886
 3688TIP3    H219192   1.532   0.578   3.782
 3689TIP3   OH219193   0.334   1.305   3.674
 3689TIP3    H119194   0.327   1.210   3.651
 3689TIP3    H219195   0.252   1.332   3.628
 3690TIP3   OH219196   0.600   0.122   3.282
 3690TIP3    H119197   0.515   0.108   3.233
 3690TIP3    H219198   0.569   0.177   3.357
 3691TIP3   OH219199   1.009   0.092   3.671
 3691TIP3    H119200   1.049   0.011   3.632
 3691TIP3    H219201   0.922   0.084   3.627
 3692TIP3   OH219202   1.341   0.425   3.690
 3692TIP3    H119203   1.294   0.404   3.774
 3692TIP3    H219204   1.344   0.522   3.691
 3693TIP3   OH219205   1.418   1.001   2.321
 3693TIP3    H119206   1.405   1.000   2.224
 3693TIP3    H219207   1.512   1.026   2.323
 3694TIP3   OH219208   0.936   0.381   2.403
 3694TIP3    H119209   0.895   0.335   2.479
 3694TIP3    H219210   0.894   0.331   2.330
 3695TIP3   OH219211   0.610   0.604   3.402
 3695TIP3    H119212   0.571   0.635   3.486
 3695TIP3    H219213   0.611   0.690   3.355
 3696TIP3   OH219214   0.589   0.622   2.923
 3696TIP3    H119215   0.502   0.635   2.879
 3696TIP3    H219216   0.644   0.597   2.845
 3697TIP3   OH219217   1.132   0.720   2.783
 3697TIP3    H119218   1.098   0.801   2.736
 3697TIP3    H219219   1.207   0.697   2.726
 3698TIP3   OH219220   1.263   0.646   3.063
 3698TIP3    H119221   1.220   0.716   3.011
 3698TIP3    H219222   1.227   0.568   3.020
 3699TIP3   OH219223   0.284   0.589   3.488
 3699TIP3    H119224   0.341   0.616   3.561
 3699TIP3    H219225   0.285   0.492   3.497
 3700TIP3   OH219226   0.647   0.409   2.201
 3700TIP3    H119227   0.613   0.382   2.290
 3700TIP3    H219228   0.575   0.472   2.174
 3701TIP3   OH219229   0.031   0.407   2.975
 3701TIP3    H119230   0.075   0.371   3.056
 3701TIP3    H219231   0.060   0.343   2.908
 3702TIP3   OH219232   0.127   0.440   2.498
 3702TIP3    H119233   0.201   0.466   2.441
 3702TIP3    H219234   0.068   0.515   2.481
 3703TIP3   OH219235   1.122   0.781   3.489
 3703TIP3    H119236   1.181   0.723   3.435
 3703TIP3    H219237   1.081   0.716   3.549
 3704TIP3   OH219238   0.843   0.399   2.988
 3704TIP3    H119239   0.748   0.395   3.014
 3704TIP3    H219240   0.887   0.354   3.062
 3705TIP3   OH219241   0.331   0.566   2.854
 3705TIP3    H119242   0.253   0.610   2.815
 3705TIP3    H219243   0.348   0.490   2.795
 3706TIP3   OH219244   0.671   0.592   2.657
 3706TIP3    H119245   0.769   0.583   2.656
 3706TIP3    H219246   0.651   0.636   2.573
 3707TIP3   OH219247   1.307   0.249   3.284
 3707TIP3    H119248   1.236   0.256   3.353
 3707TIP3    H219249   1.283   0.170   3.234
 3708TIP3   OH219250   0.544   0.721   2.384
 3708TIP3    H119251   0.499   0.637   2.362
 3708TIP3    H219252   0.611   0.726   2.313
 3709TIP3   OH219253   0.893   0.672   3.153
 3709TIP3    H119254   0.968   0.625   3.117
 3709TIP3    H219255   0.854   0.602   3.208
 3710TIP3   OH219256   0.440   0.298   2.745
 3710TIP3    H119257   0.376   0.239   2.793
 3710TIP3    H219258   0.507   0.233   2.717
 3711TIP3   OH219259   0.843   0.474   3.357
 3711TIP3    H119260   0.763   0.521   3.389
 3711TIP3    H219261   0.913   0.499   3.419
 3712TIP3   OH219262   0.901   1.144   2.611
 3712TIP3    H119263   0.828   1.092   2.572
 3712TIP3    H219264   0.860   1.174   2.695
 3713TIP3   OH219265   1.612   1.100   3.472
 3713TIP3    H119266   1.655   1.151   3.399
 3713TIP3    H219267   1.535   1.065   3.425
 3714TIP3   OH219268   1.207   0.394   2.415
 3714TIP3    H119269   1.109   0.404   2.409
 3714TIP3    H219270   1.235   0.487   2.436
 3715TIP3   OH219271   0.976   1.136   3.736
 3715TIP3    H119272   1.008   1.102   3.821
 3715TIP3    H219273   0.979   1.232   3.750
 3716TIP3   OH219274   1.316   0.603   2.534
 3716TIP3    H119275   1.384   0.608   2.604
 3716TIP3    H219276   1.319   0.693   2.495
 3717TIP3   OH219277   0.397   1.060   3.133
 3717TIP3    H119278   0.451   1.049   3.053
 3717TIP3    H219279   0.437   0.998   3.195
 3718TIP3   OH219280   1.101   1.280   2.465
 3718TIP3    H119281   1.048   1.361   2.487
 3718TIP3    H219282   1.039   1.210   2.490
 3719TIP3   OH219283   0.100   0.908   3.661
 3719TIP3    H119284   0.077   0.831   3.715
 3719TIP3    H219285   0.014   0.923   3.618
 3720TIP3   OH219286   1.289   1.404   3.716
 3720TIP3    H119287   1.209   1.367   3.675
 3720TIP3    H219288   1.266   1.408   3.811
 3721TIP3   OH219289   1.793   0.640   2.513
 3721TIP3    H119290   1.745   0.609   2.432
 3721TIP3    H219291   1.810   0.734   2.489
 3722TIP3   OH219292   1.667   1.447   2.616
 3722TIP3    H119293   1.587   1.407   2.653
 3722TIP3    H219294   1.671   1.411   2.526
 3723TIP3   OH219295   1.364   0.981   3.270
 3723TIP3    H119296   1.279   0.946   3.237
 3723TIP3    H219297   1.424   0.918   3.225
 3724TIP3   OH219298   0.590   1.398   2.939
 3724TIP3    H119299   0.619   1.479   2.891
 3724TIP3    H219300   0.504   1.383   2.898
 3725TIP3   OH219301   0.224   0.908   2.330
 3725TIP3    H119302   0.270   0.979   2.379
 3725TIP3    H219303   0.132   0.922   2.361
 3726TIP3   OH219304   0.772   1.193   2.863
 3726TIP3    H119305   0.703   1.262   2.869
 3726TIP3    H219306   0.725   1.115   2.900
 3727TIP3   OH219307   0.857   1.580   3.549
 3727TIP3    H119308   0.914   1.650   3.510
 3727TIP3    H219309   0.924   1.527   3.597
 3728TIP3   OH219310   0.627   1.643   2.773
 3728TIP3    H119311   0.534   1.657   2.800
 3728TIP3    H219312   0.663   1.731   2.799
 3729TIP3   OH219313   1.140   1.187   3.451
 3729TIP3    H119314   1.110   1.142   3.533
 3729TIP3    H219315   1.193   1.117   3.409
 3730TIP3   OH219316   1.426   1.318   2.381
 3730TIP3    H119317   1.422   1.268   2.466
 3730TIP3    H219318   1.335   1.299   2.351
 3731TIP3   OH219319   1.431   1.635   3.724
 3731TIP3    H119320   1.375   1.553   3.719
 3731TIP3    H219321   1.413   1.674   3.637
 3732TIP3   OH219322   1.830   1.728   2.410
 3732TIP3    H119323   1.875   1.789   2.349
 3732TIP3    H219324   1.757   1.784   2.443
 3733TIP3   OH219325   0.277   0.338   3.591
 3733TIP3    H119326   0.191   0.363   3.629
 3733TIP3    H219327   0.309   0.280   3.661
 3734TIP3   OH219328   1.500   1.160   2.604
 3734TIP3    H119329   1.483   1.071   2.639
 3734TIP3    H219330   1.598   1.161   2.598
 3735TIP3   OH219331   0.265   1.557   3.481
 3735TIP3    H119332   0.349   1.542   3.435
 3735TIP3    H219333   0.285   1.643   3.524
 3736TIP3   OH219334   0.807   1.451   2.221
 3736TIP3    H119335   0.785   1.405   2.138
 3736TIP3    H219336   0.748   1.407   2.284
 3737TIP3   OH219337   0.673   1.343   2.454
 3737TIP3    H119338   0.751   1.309   2.501
 3737TIP3    H219339   0.676   1.439   2.481
 3738TIP3   OH219340   0.375   1.074   2.501
 3738TIP3    H119341   0.288   1.117   2.525
 3738TIP3    H219342   0.417   1.152   2.462
 3739TIP3   OH219343   1.170   0.287   3.519
 3739TIP3    H119344   1.251   0.324   3.561
 3739TIP3    H219345   1.130   0.242   3.597
 3740TIP3   OH219346   1.258   0.256   2.642
 3740TIP3    H119347   1.242   0.300   2.555
 3740TIP3    H219348   1.279   0.329   2.703
 3741TIP3   OH219349   0.955   1.515   2.478
 3741TIP3    H119350   0.864   1.545   2.500
 3741TIP3    H219351   1.003   1.600   2.481
 3742TIP3   OH219352   0.916   0.535   2.742
 3742TIP3    H119353   0.985   0.603   2.753
 3742TIP3    H219354   0.914   0.490   2.829
 3743TIP3   OH219355   0.991   0.596   3.663
 3743TIP3    H119356   0.907   0.632   3.698
 3743TIP3    H219357   0.982   0.501   3.676
 3744TIP3   OH219358   1.022   0.223   2.815
 3744TIP3    H119359   0.991   0.271   2.894
 3744TIP3    H219360   1.112   0.258   2.807
 3745TIP3   OH219361   0.699   1.594   2.517
 3745TIP3    H119362   0.706   1.678   2.465
 3745TIP3    H219363   0.664   1.631   2.602
 3746TIP3   OH219364   0.565   0.386   2.457
 3746TIP3    H119365   0.532   0.434   2.535
 3746TIP3    H219366   0.644   0.344   2.497
 3747TIP3   OH219367   1.574   0.278   3.702
 3747TIP3    H119368   1.493   0.322   3.733
 3747TIP3    H219369   1.566   0.293   3.606
 3748TIP3   OH219370   1.490   0.792   3.112
 3748TIP3    H119371   1.413   0.731   3.108
 3748TIP3    H219372   1.548   0.738   3.170
 3749TIP3   OH219373   0.390   1.345   2.377
 3749TIP3    H119374   0.471   1.370   2.425
 3749TIP3    H219375   0.427   1.297   2.300
 3750TIP3   OH219376   0.231   0.633   2.294
 3750TIP3    H119377   0.255   0.727   2.311
 3750TIP3    H219378   0.170   0.638   2.220
 3751TIP3   OH219379   1.552   1.693   3.285
 3751TIP3    H119380   1.536   1.776   3.233
 3751TIP3    H219381   1.640   1.669   3.248
 3752TIP3   OH219382   0.358   0.090   3.178
 3752TIP3    H119383   0.324   0.133   3.097
 3752TIP3    H219384   0.328  -0.002   3.162
 3753TIP3   OH219385   0.162   1.433   2.726
 3753TIP3    H119386   0.113   1.485   2.789
 3753TIP3    H219387   0.190   1.503   2.663
 3754TIP3   OH219388   1.012   1.643   2.203
 3754TIP3    H119389   0.958   1.565   2.229
 3754TIP3    H219390   1.090   1.599   2.163
 3755TIP3   OH219391   1.247   1.429   3.989
 3755TIP3    H119392   1.204   1.379   4.062
 3755TIP3    H219393   1.302   1.485   4.045
 3756TIP3   OH219394   1.446   1.544   2.228
 3756TIP3    H119395   1.453   1.463   2.284
 3756TIP3    H219396   1.529   1.542   2.179
 3757TIP3   OH219397   0.572   1.171   2.205
 3757TIP3    H119398   0.609   1.139   2.288
 3757TIP3    H219399   0.654   1.170   2.150
 3758TIP3   OH219400   0.752   1.101   3.901
 3758TIP3    H119401   0.749   1.175   3.838
 3758TIP3    H219402   0.799   1.032   3.853
 3759TIP3   OH219403   1.106   1.313   2.177
 3759TIP3    H119404   1.069   1.302   2.267
 3759TIP3    H219405   1.117   1.219   2.152
 3760TIP3   OH219406   1.364   1.128   3.735
 3760TIP3    H119407   1.459   1.148   3.728
 3760TIP3    H219408   1.332   1.220   3.727
 3761TIP3   OH219409   0.700   0.971   2.456
 3761TIP3    H119410   0.607   0.942   2.459
 3761TIP3    H219411   0.741   0.891   2.418
 3762TIP3   OH219412   0.556   0.716   3.647
 3762TIP3    H119413   0.509   0.793   3.688
 3762TIP3    H219414   0.645   0.756   3.634
 3763TIP3   OH219415   0.808   0.795   2.269
 3763TIP3    H119416   0.769   0.835   2.190
 3763TIP3    H219417   0.899   0.831   2.269
 3764TIP3   OH219418   1.121   1.031   4.055
 3764TIP3    H119419   1.153   1.072   4.138
 3764TIP3    H219420   1.100   0.943   4.090
 3765TIP3   OH219421   1.695   0.999   2.218
 3765TIP3    H119422   1.692   0.978   2.122
 3765TIP3    H219423   1.698   1.098   2.218
 3766TIP3   OH219424   0.674   0.517   3.788
 3766TIP3    H119425   0.699   0.448   3.722
 3766TIP3    H219426   0.626   0.583   3.733
 3767TIP3   OH219427   0.738   0.328   3.575
 3767TIP3    H119428   0.791   0.339   3.493
 3767TIP3    H219429   0.649   0.339   3.536
 3768TIP3   OH219430   0.790   0.862   3.605
 3768TIP3    H119431   0.881   0.885   3.582
 3768TIP3    H219432   0.745   0.938   3.563
 3769TIP3   OH219433   1.417   0.862   3.856
 3769TIP3    H119434   1.388   0.949   3.824
 3769TIP3    H219435   1.378   0.859   3.945
 3770TIP3   OH219436   0.506   0.634   4.007
 3770TIP3    H119437   0.418   0.595   4.025
 3770TIP3    H219438   0.541   0.571   3.942
 3771TIP3   OH219439   0.757   0.046   3.564
 3771TIP3    H119440   0.740   0.141   3.574
 3771TIP3    H219441   0.680   0.008   3.610
 3772TIP3   OH219442   1.189   0.308   3.867
 3772TIP3    H119443   1.145   0.223   3.881
 3772TIP3    H219444   1.238   0.319   3.952
 3773TIP3   OH219445   1.323   0.359   4.104
 3773TIP3    H119446   1.353   0.279   4.151
 3773TIP3    H219447   1.387   0.426   4.133
 3774TIP3   OH219448   0.324   0.447   4.003
 3774TIP3    H119449   0.347   0.360   3.970
 3774TIP3    H219450   0.307   0.421   4.098
 3775TIP3   OH219451   0.759   0.059   3.857
 3775TIP3    H119452   0.781   0.008   3.937
 3775TIP3    H219453   0.842   0.057   3.807
 3776TIP3   OH219454   0.754   1.830   2.409
 3776TIP3    H119455   0.850   1.846   2.409
 3776TIP3    H219456   0.726   1.886   2.335
 3777TIP3   OH219457   0.081   1.367   2.323
 3777TIP3    H119458   0.176   1.389   2.323
 3777TIP3    H219459   0.080   1.298   2.253
 3778TIP3   OH219460   0.047   1.957   2.940
 3778TIP3    H119461  -0.005   1.922   2.866
 3778TIP3    H219462   0.045   1.883   3.003
 3779TIP3   OH219463   0.071   1.655   3.018
 3779TIP3    H119464   0.076   1.558   3.017
 3779TIP3    H219465   0.035   1.666   3.109
 3780TIP3   OH219466   1.839   1.685   3.287
 3780TIP3    H119467   1.828   1.705   3.382
 3780TIP3    H219468   1.881   1.765   3.255
 3781TIP3   OH219469   1.768   1.706   3.554
 3781TIP3    H119470   1.734   1.621   3.519
 3781TIP3    H219471   1.780   1.684   3.647
 3782TIP3   OH219472   1.763   1.104   2.603
 3782TIP3    H119473   1.851   1.145   2.614
 3782TIP3    H219474   1.765   1.034   2.672
 3783TIP3   OH219475   1.812   0.896   2.797
 3783TIP3    H119476   1.749   0.829   2.831
 3783TIP3    H219477   1.857   0.919   2.882
 3784TIP3   OH219478   1.756   1.182   3.272
 3784TIP3    H119479   1.832   1.120   3.258
 3784TIP3    H219480   1.790   1.263   3.229
 3785TIP3   OH219481   1.633   1.459   3.511
 3785TIP3    H119482   1.567   1.527   3.527
 3785TIP3    H219483   1.600   1.419   3.427
 3786TIP3   OH219484   1.849   0.895   2.433
 3786TIP3    H119485   1.773   0.906   2.372
 3786TIP3    H219486   1.841   0.977   2.485
 3787TIP3   OH219487   1.695   0.615   2.262
 3787TIP3    H119488   1.723   0.685   2.199
 3787TIP3    H219489   1.655   0.547   2.204
 3788TIP3   OH219490   1.632   0.734   2.892
 3788TIP3    H119491   1.580   0.655   2.871
 3788TIP3    H219492   1.589   0.763   2.977
 3789TIP3   OH219493   0.118   0.927   3.282
 3789TIP3    H119494   0.133   0.965   3.194
 3789TIP3    H219495   0.207   0.934   3.323
 3790TIP3   OH219496   1.793   0.721   3.835
 3790TIP3    H119497   1.708   0.681   3.864
 3790TIP3    H219498   1.841   0.735   3.919
 3791TIP3   OH219499   1.635   0.367   2.180
 3791TIP3    H119500   1.673   0.328   2.261
 3791TIP3    H219501   1.538   0.356   2.192
 3792TIP3   OH219502   1.510   0.561   2.730
 3792TIP3    H119503   1.537   0.466   2.742
 3792TIP3    H219504   1.594   0.599   2.702
 3793TIP3   OH219505   1.633   0.619   3.284
 3793TIP3    H119506   1.732   0.607   3.286
 3793TIP3    H219507   1.617   0.624   3.380
 3794TIP3   OH219508   1.635   0.672   3.566
 3794TIP3    H119509   1.538   0.688   3.573
 3794TIP3    H219510   1.674   0.761   3.563
 3795TIP3   OH219511   0.089   0.445   3.860
 3795TIP3    H119512   0.177   0.469   3.892
 3795TIP3    H219513   0.052   0.410   3.943
 3796TIP3   OH219514   1.712   0.093   4.058
 3796TIP3    H119515   1.693   0.173   4.007
 3796TIP3    H219516   1.678   0.124   4.143
 3797TIP3   OH219517   1.614   0.308   2.771
 3797TIP3    H119518   1.662   0.262   2.843
 3797TIP3    H219519   1.592   0.233   2.713
 3798TIP3   OH219520   0.157   0.290   3.175
 3798TIP3    H119521   0.199   0.218   3.225
 3798TIP3    H219522   0.199   0.369   3.213
 3799TIP3   OH219523   0.031   0.634   3.294
 3799TIP3    H119524   0.123   0.605   3.307
 3799TIP3    H219525   0.040   0.730   3.307
 3800TIP3   OH219526   1.837   0.282   3.803
 3800TIP3    H119527   1.743   0.304   3.813
 3800TIP3    H219528   1.832   0.199   3.751
 3801TIP3   OH219529   1.801   0.237   2.389
 3801TIP3    H119530   1.848   0.180   2.325
 3801TIP3    H219531   1.867   0.307   2.409
 3802TIP3   OH219532   0.035   0.279   2.716
 3802TIP3    H119533  -0.035   0.347   2.711
 3802TIP3    H219534   0.094   0.315   2.646
 3803TIP3   OH219535   1.485   1.762   2.901
 3803TIP3    H119536   1.564   1.747   2.845
 3803TIP3    H219537   1.518   1.821   2.970
 3804TIP3   OH219538   4.540   0.044   3.445
 3804TIP3    H119539   4.457   0.002   3.474
 3804TIP3    H219540   4.519   0.140   3.445
 3805TIP3   OH219541   0.582   1.589   3.570
 3805TIP3    H119542   0.581   1.678   3.529
 3805TIP3    H219543   0.679   1.573   3.568
 3806TIP3   OH219544   1.158   1.826   3.799
 3806TIP3    H119545   1.186   1.769   3.726
 3806TIP3    H219546   1.237   1.880   3.811
 3807TIP3   OH219547   1.697   0.042   3.692
 3807TIP3    H119548   1.644   0.124   3.692
 3807TIP3    H219549   1.644  -0.013   3.631
 3808TIP3   OH219550   0.297   1.819   3.580
 3808TIP3    H119551   0.300   1.875   3.502
 3808TIP3    H219552   0.204   1.837   3.606
 3809TIP3   OH219553   0.568   1.821   3.433
 3809TIP3    H119554   0.486   1.835   3.481
 3809TIP3    H219555   0.556   1.881   3.357
 3810TIP3   OH219556   0.967   1.792   3.377
 3810TIP3    H119557   0.914   1.837   3.309
 3810TIP3    H219558   0.978   1.866   3.439
 3811TIP3   OH219559   1.170   1.661   3.521
 3811TIP3    H119560   1.116   1.708   3.454
 3811TIP3    H219561   1.258   1.699   3.502
 3812TIP3   OH219562   1.420   1.784   3.498
 3812TIP3    H119563   1.447   1.876   3.484
 3812TIP3    H219564   1.472   1.740   3.426
 3813TIP3   OH219565   0.269   1.740   3.267
 3813TIP3    H119566   0.201   1.681   3.301
 3813TIP3    H219567   0.319   1.679   3.208
 3814TIP3   OH219568   0.431   1.574   3.136
 3814TIP3    H119569   0.430   1.479   3.159
 3814TIP3    H219570   0.523   1.596   3.164
 3815TIP3   OH219571   0.686   1.612   3.248
 3815TIP3    H119572   0.739   1.535   3.273
 3815TIP3    H219573   0.703   1.674   3.321
 3816TIP3   OH219574   1.059   0.195   3.086
 3816TIP3    H119575   1.030   0.177   3.176
 3816TIP3    H219576   1.012   0.126   3.037
 3817TIP3   OH219577   1.536   0.117   3.140
 3817TIP3    H119578   1.611   0.112   3.076
 3817TIP3    H219579   1.459   0.112   3.082
 3818TIP3   OH219580   1.746   0.151   2.975
 3818TIP3    H119581   1.821   0.100   2.944
 3818TIP3    H219582   1.792   0.233   3.006
 3819TIP3   OH219583   0.315   0.121   2.910
 3819TIP3    H119584   0.236   0.064   2.890
 3819TIP3    H219585   0.375   0.055   2.949
 3820TIP3   OH219586   0.165   0.070   2.488
 3820TIP3    H119587   0.235   0.121   2.442
 3820TIP3    H219588   0.113   0.140   2.527
 3821TIP3   OH219589   0.742   0.029   2.849
 3821TIP3    H119590   0.796   0.097   2.808
 3821TIP3    H219591   0.761   0.041   2.944
 3822TIP3   OH219592   1.336   0.059   2.930
 3822TIP3    H119593   1.273   0.132   2.918
 3822TIP3    H219594   1.276  -0.009   2.966
 3823TIP3   OH219595   1.434   0.051   2.646
 3823TIP3    H119596   1.366   0.123   2.643
 3823TIP3    H219597   1.428   0.023   2.740
 3824TIP3   OH219598   0.190   1.671   2.595
 3824TIP3    H119599   0.097   1.663   2.568
 3824TIP3    H219600   0.214   1.761   2.565
 3825TIP3   OH219601   0.340   0.225   2.345
 3825TIP3    H119602   0.402   0.169   2.293
 3825TIP3    H219603   0.403   0.280   2.393
 3826TIP3   OH219604   0.815   0.291   2.627
 3826TIP3    H119605   0.888   0.245   2.673
 3826TIP3    H219606   0.830   0.382   2.658
 3827TIP3   OH219607   1.065   1.796   2.418
 3827TIP3    H119608   1.163   1.792   2.410
 3827TIP3    H219609   1.045   1.756   2.330
 3828TIP3   OH219610   1.695   1.689   2.723
 3828TIP3    H119611   1.689   1.608   2.666
 3828TIP3    H219612   1.699   1.760   2.655
 3829TIP3   OH219613   0.288   1.729   2.281
 3829TIP3    H119614   0.251   1.722   2.371
 3829TIP3    H219615   0.373   1.684   2.293
 3830TIP3   OH219616   1.382   0.089   4.036
 3830TIP3    H119617   1.285   0.071   4.039
 3830TIP3    H219618   1.405   0.040   3.957
 3831TIP3   OH219619   1.654   1.631   3.873
 3831TIP3    H119620   1.575   1.642   3.815
 3831TIP3    H219621   1.659   1.713   3.922
 3832TIP3   OH219622   3.134   1.001   2.908
 3832TIP3    H119623   3.152   1.075   2.969
 3832TIP3    H219624   3.067   1.043   2.849
 3833TIP3   OH219625   2.984   0.883   3.233
 3833TIP3    H119626   2.984   0.855   3.327
 3833TIP3    H219627   2.917   0.823   3.194
 3834TIP3   OH219628   2.163   0.887   3.371
 3834TIP3    H119629   2.153   0.814   3.435
 3834TIP3    H219630   2.256   0.909   3.383
 3835TIP3   OH219631   3.297   1.183   3.103
 3835TIP3    H119632   3.299   1.115   3.173
 3835TIP3    H219633   3.335   1.259   3.151
 3836TIP3   OH219634   2.295   1.333   3.121
 3836TIP3    H119635   2.266   1.240   3.133
 3836TIP3    H219636   2.388   1.322   3.147
 3837TIP3   OH219637   1.965   0.640   2.786
 3837TIP3    H119638   1.954   0.736   2.775
 3837TIP3    H219639   1.876   0.610   2.763
 3838TIP3   OH219640   1.965   0.906   3.022
 3838TIP3    H119641   2.004   0.817   3.037
 3838TIP3    H219642   2.038   0.955   2.981
 3839TIP3   OH219643   3.069   1.738   3.094
 3839TIP3    H119644   3.114   1.670   3.039
 3839TIP3    H219645   3.021   1.682   3.156
 3840TIP3   OH219646   2.787   1.110   3.331
 3840TIP3    H119647   2.823   1.056   3.260
 3840TIP3    H219648   2.869   1.142   3.375
 3841TIP3   OH219649   3.619   0.301   3.330
 3841TIP3    H119650   3.660   0.369   3.388
 3841TIP3    H219651   3.681   0.295   3.256
 3842TIP3   OH219652   3.117   0.614   3.367
 3842TIP3    H119653   3.154   0.534   3.410
 3842TIP3    H219654   3.145   0.600   3.276
 3843TIP3   OH219655   2.436   0.339   3.005
 3843TIP3    H119656   2.450   0.435   2.988
 3843TIP3    H219657   2.371   0.319   2.935
 3844TIP3   OH219658   3.197   0.406   2.868
 3844TIP3    H119659   3.242   0.381   2.951
 3844TIP3    H219660   3.256   0.478   2.838
 3845TIP3   OH219661   2.073   0.669   3.086
 3845TIP3    H119662   2.139   0.646   3.154
 3845TIP3    H219663   2.101   0.606   3.015
 3846TIP3   OH219664   2.578   0.806   3.062
 3846TIP3    H119665   2.658   0.760   3.094
 3846TIP3    H219666   2.527   0.728   3.030
 3847TIP3   OH219667   3.669   0.427   3.577
 3847TIP3    H119668   3.619   0.504   3.541
 3847TIP3    H219669   3.597   0.393   3.634
 3848TIP3   OH219670   2.352   0.290   3.441
 3848TIP3    H119671   2.301   0.329   3.368
 3848TIP3    H219672   2.286   0.295   3.514
 3849TIP3   OH219673   3.010   1.226   2.787
 3849TIP3    H119674   2.973   1.221   2.697
 3849TIP3    H219675   2.997   1.322   2.805
 3850TIP3   OH219676   2.535   1.053   3.445
 3850TIP3    H119677   2.482   1.134   3.466
 3850TIP3    H219678   2.617   1.095   3.411
 3851TIP3   OH219679   3.367   0.419   3.121
 3851TIP3    H119680   3.386   0.326   3.145
 3851TIP3    H219681   3.420   0.466   3.188
 3852TIP3   OH219682   2.270   0.505   3.216
 3852TIP3    H119683   2.337   0.539   3.278
 3852TIP3    H219684   2.324   0.494   3.136
 3853TIP3   OH219685   2.418   1.280   3.514
 3853TIP3    H119686   2.413   1.376   3.496
 3853TIP3    H219687   2.332   1.268   3.560
 3854TIP3   OH219688   2.025   1.203   2.594
 3854TIP3    H119689   2.020   1.262   2.515
 3854TIP3    H219690   2.025   1.272   2.665
 3855TIP3   OH219691   3.383   1.389   3.291
 3855TIP3    H119692   3.289   1.397   3.317
 3855TIP3    H219693   3.395   1.482   3.263
 3856TIP3   OH219694   3.389   0.312   3.461
 3856TIP3    H119695   3.310   0.299   3.403
 3856TIP3    H219696   3.463   0.297   3.400
 3857TIP3   OH219697   2.673   0.082   3.141
 3857TIP3    H119698   2.719   0.020   3.203
 3857TIP3    H219699   2.587   0.096   3.187
 3858TIP3   OH219700   3.195   1.556   2.930
 3858TIP3    H119701   3.232   1.474   2.890
 3858TIP3    H219702   3.268   1.619   2.910
 3859TIP3   OH219703   3.299   1.338   2.808
 3859TIP3    H119704   3.299   1.271   2.737
 3859TIP3    H219705   3.293   1.281   2.886
 3860TIP3   OH219706   3.474   1.223   3.675
 3860TIP3    H119707   3.477   1.146   3.614
 3860TIP3    H219708   3.490   1.296   3.611
 3861TIP3   OH219709   2.918   0.917   2.638
 3861TIP3    H119710   2.884   1.008   2.624
 3861TIP3    H219711   3.000   0.916   2.585
 3862TIP3   OH219712   2.936   0.828   2.348
 3862TIP3    H119713   3.013   0.859   2.401
 3862TIP3    H219714   2.970   0.742   2.319
 3863TIP3   OH219715   3.702   0.869   3.506
 3863TIP3    H119716   3.639   0.941   3.482
 3863TIP3    H219717   3.752   0.855   3.425
 3864TIP3   OH219718   3.301   0.892   2.723
 3864TIP3    H119719   3.232   0.927   2.786
 3864TIP3    H219720   3.358   0.843   2.788
 3865TIP3   OH219721   3.222   0.772   3.645
 3865TIP3    H119722   3.225   0.846   3.706
 3865TIP3    H219723   3.146   0.799   3.589
 3866TIP3   OH219724   2.438   0.983   2.920
 3866TIP3    H119725   2.392   0.939   2.845
 3866TIP3    H219726   2.498   0.913   2.954
 3867TIP3   OH219727   2.577   1.306   3.193
 3867TIP3    H119728   2.592   1.285   3.100
 3867TIP3    H219729   2.645   1.252   3.238
 3868TIP3   OH219730   2.452   0.852   3.294
 3868TIP3    H119731   2.499   0.857   3.208
 3868TIP3    H219732   2.496   0.923   3.347
 3869TIP3   OH219733   3.137   1.434   3.369
 3869TIP3    H119734   3.108   1.503   3.431
 3869TIP3    H219735   3.101   1.351   3.406
 3870TIP3   OH219736   2.546   1.359   3.789
 3870TIP3    H119737   2.481   1.413   3.841
 3870TIP3    H219738   2.502   1.352   3.703
 3871TIP3   OH219739   3.159   0.878   2.500
 3871TIP3    H119740   3.217   0.886   2.580
 3871TIP3    H219741   3.213   0.926   2.433
 3872TIP3   OH219742   2.195   1.003   3.640
 3872TIP3    H119743   2.191   1.061   3.718
 3872TIP3    H219744   2.124   0.936   3.654
 3873TIP3   OH219745   2.931   1.496   2.810
 3873TIP3    H119746   3.002   1.526   2.869
 3873TIP3    H219747   2.885   1.579   2.792
 3874TIP3   OH219748   3.562   0.052   2.581
 3874TIP3    H119749   3.464   0.045   2.583
 3874TIP3    H219750   3.578   0.115   2.507
 3875TIP3   OH219751   2.282   0.886   2.720
 3875TIP3    H119752   2.288   0.971   2.671
 3875TIP3    H219753   2.247   0.827   2.651
 3876TIP3   OH219754   3.680   1.455   2.408
 3876TIP3    H119755   3.697   1.549   2.385
 3876TIP3    H219756   3.770   1.416   2.395
 3877TIP3   OH219757   1.958   1.170   3.563
 3877TIP3    H119758   1.885   1.168   3.499
 3877TIP3    H219759   2.013   1.095   3.532
 3878TIP3   OH219760   1.920   1.415   3.207
 3878TIP3    H119761   2.009   1.378   3.208
 3878TIP3    H219762   1.926   1.483   3.277
 3879TIP3   OH219763   3.738   1.465   3.803
 3879TIP3    H119764   3.711   1.372   3.814
 3879TIP3    H219765   3.656   1.511   3.837
 3880TIP3   OH219766   2.784   1.489   3.709
 3880TIP3    H119767   2.804   1.573   3.757
 3880TIP3    H219768   2.698   1.465   3.749
 3881TIP3   OH219769   2.923   1.799   2.717
 3881TIP3    H119770   2.924   1.813   2.620
 3881TIP3    H219771   2.895   1.889   2.742
 3882TIP3   OH219772   2.251   1.648   2.876
 3882TIP3    H119773   2.283   1.618   2.964
 3882TIP3    H219774   2.155   1.633   2.885
 3883TIP3   OH219775   3.215   1.752   2.381
 3883TIP3    H119776   3.262   1.676   2.339
 3883TIP3    H219777   3.233   1.738   2.476
 3884TIP3   OH219778   3.172   1.725   2.652
 3884TIP3    H119779   3.083   1.749   2.686
 3884TIP3    H219780   3.197   1.655   2.714
 3885TIP3   OH219781   2.189   1.299   3.670
 3885TIP3    H119782   2.191   1.258   3.759
 3885TIP3    H219783   2.101   1.269   3.639
 3886TIP3   OH219784   2.458   0.109   3.282
 3886TIP3    H119785   2.372   0.112   3.233
 3886TIP3    H219786   2.442   0.184   3.344
 3887TIP3   OH219787   2.914   0.114   3.672
 3887TIP3    H119788   2.917   0.046   3.741
 3887TIP3    H219789   2.835   0.083   3.620
 3888TIP3   OH219790   3.190   0.508   3.679
 3888TIP3    H119791   3.148   0.472   3.760
 3888TIP3    H219792   3.192   0.605   3.694
 3889TIP3   OH219793   3.303   0.998   2.316
 3889TIP3    H119794   3.292   0.996   2.218
 3889TIP3    H219795   3.396   1.027   2.321
 3890TIP3   OH219796   2.864   0.336   2.346
 3890TIP3    H119797   2.826   0.306   2.431
 3890TIP3    H219798   2.813   0.277   2.287
 3891TIP3   OH219799   2.480   0.597   3.389
 3891TIP3    H119800   2.395   0.594   3.437
 3891TIP3    H219801   2.474   0.688   3.352
 3892TIP3   OH219802   2.445   0.598   2.934
 3892TIP3    H119803   2.352   0.584   2.906
 3892TIP3    H219804   2.489   0.612   2.847
 3893TIP3   OH219805   3.012   0.718   2.785
 3893TIP3    H119806   2.964   0.791   2.740
 3893TIP3    H219807   3.081   0.700   2.720
 3894TIP3   OH219808   2.948   0.641   3.942
 3894TIP3    H119809   2.987   0.563   3.986
 3894TIP3    H219810   3.008   0.657   3.868
 3895TIP3   OH219811   3.130   0.682   3.067
 3895TIP3    H119812   3.084   0.747   3.009
 3895TIP3    H219813   3.111   0.600   3.020
 3896TIP3   OH219814   2.222   0.620   3.491
 3896TIP3    H119815   2.260   0.678   3.561
 3896TIP3    H219816   2.192   0.542   3.541
 3897TIP3   OH219817   2.520   0.401   2.244
 3897TIP3    H119818   2.465   0.365   2.317
 3897TIP3    H219819   2.454   0.460   2.200
 3898TIP3   OH219820   1.919   0.353   3.028
 3898TIP3    H119821   1.994   0.358   3.089
 3898TIP3    H219822   1.953   0.383   2.943
 3899TIP3   OH219823   1.977   0.430   2.498
 3899TIP3    H119824   2.039   0.469   2.432
 3899TIP3    H219825   1.920   0.509   2.513
 3900TIP3   OH219826   2.998   0.814   3.499
 3900TIP3    H119827   3.060   0.750   3.458
 3900TIP3    H219828   2.937   0.749   3.542
 3901TIP3   OH219829   2.712   0.402   2.974
 3901TIP3    H119830   2.630   0.350   2.969
 3901TIP3    H219831   2.765   0.347   3.035
 3902TIP3   OH219832   2.174   0.509   2.893
 3902TIP3    H119833   2.114   0.567   2.839
 3902TIP3    H219834   2.187   0.436   2.830
 3903TIP3   OH219835   2.535   0.574   2.667
 3903TIP3    H119836   2.633   0.573   2.674
 3903TIP3    H219837   2.518   0.620   2.584
 3904TIP3   OH219838   3.159   0.261   3.336
 3904TIP3    H119839   3.081   0.281   3.391
 3904TIP3    H219840   3.126   0.262   3.245
 3905TIP3   OH219841   2.408   0.692   2.357
 3905TIP3    H119842   2.380   0.640   2.280
 3905TIP3    H219843   2.501   0.709   2.330
 3906TIP3   OH219844   3.413   1.928   3.953
 3906TIP3    H119845   3.502   1.941   3.916
 3906TIP3    H219846   3.437   1.912   4.046
 3907TIP3   OH219847   2.210   1.146   3.898
 3907TIP3    H119848   2.294   1.187   3.922
 3907TIP3    H219849   2.194   1.089   3.975
 3908TIP3   OH219850   2.825   0.668   3.182
 3908TIP3    H119851   2.831   0.610   3.105
 3908TIP3    H219852   2.887   0.625   3.242
 3909TIP3   OH219853   2.283   0.290   2.785
 3909TIP3    H119854   2.236   0.213   2.823
 3909TIP3    H219855   2.360   0.246   2.748
 3910TIP3   OH219856   2.725   0.460   3.441
 3910TIP3    H119857   2.650   0.506   3.400
 3910TIP3    H219858   2.786   0.533   3.460
 3911TIP3   OH219859   2.770   1.143   2.602
 3911TIP3    H119860   2.705   1.076   2.569
 3911TIP3    H219861   2.726   1.165   2.688
 3912TIP3   OH219862   3.512   1.054   3.463
 3912TIP3    H119863   3.557   1.120   3.404
 3912TIP3    H219864   3.433   1.032   3.409
 3913TIP3   OH219865   3.108   0.405   2.412
 3913TIP3    H119866   3.011   0.399   2.396
 3913TIP3    H219867   3.122   0.500   2.435
 3914TIP3   OH219868   2.831   1.188   3.724
 3914TIP3    H119869   2.783   1.173   3.807
 3914TIP3    H219870   2.829   1.285   3.714
 3915TIP3   OH219871   3.204   0.621   2.540
 3915TIP3    H119872   3.266   0.609   2.615
 3915TIP3    H219873   3.228   0.709   2.506
 3916TIP3   OH219874   2.267   1.054   3.127
 3916TIP3    H119875   2.317   1.028   3.046
 3916TIP3    H219876   2.296   0.989   3.194
 3917TIP3   OH219877   2.973   1.289   2.452
 3917TIP3    H119878   2.942   1.373   2.493
 3917TIP3    H219879   2.902   1.229   2.483
 3918TIP3   OH219880   1.994   0.818   3.661
 3918TIP3    H119881   1.932   0.776   3.725
 3918TIP3    H219882   1.930   0.841   3.591
 3919TIP3   OH219883   3.141   1.422   3.749
 3919TIP3    H119884   3.076   1.439   3.679
 3919TIP3    H219885   3.100   1.465   3.826
 3920TIP3   OH219886   3.712   0.634   2.530
 3920TIP3    H119887   3.658   0.589   2.461
 3920TIP3    H219888   3.713   0.725   2.489
 3921TIP3   OH219889   3.690   1.191   3.831
 3921TIP3    H119890   3.607   1.210   3.781
 3921TIP3    H219891   3.744   1.146   3.762
 3922TIP3   OH219892   3.460   1.519   2.568
 3922TIP3    H119893   3.440   1.446   2.628
 3922TIP3    H219894   3.525   1.476   2.509
 3923TIP3   OH219895   3.259   0.981   3.289
 3923TIP3    H119896   3.172   0.962   3.250
 3923TIP3    H219897   3.310   0.913   3.239
 3924TIP3   OH219898   2.506   1.404   2.891
 3924TIP3    H119899   2.511   1.500   2.879
 3924TIP3    H219900   2.421   1.385   2.849
 3925TIP3   OH219901   2.180   0.919   2.328
 3925TIP3    H119902   2.220   0.974   2.398
 3925TIP3    H219903   2.086   0.923   2.351
 3926TIP3   OH219904   2.630   1.160   2.836
 3926TIP3    H119905   2.590   1.247   2.857
 3926TIP3    H219906   2.578   1.096   2.888
 3927TIP3   OH219907   2.692   1.621   3.471
 3927TIP3    H119908   2.768   1.674   3.440
 3927TIP3    H219909   2.735   1.572   3.544
 3928TIP3   OH219910   2.493   1.712   2.760
 3928TIP3    H119911   2.405   1.699   2.800
 3928TIP3    H219912   2.523   1.793   2.805
 3929TIP3   OH219913   3.010   1.197   3.458
 3929TIP3    H119914   2.971   1.159   3.539
 3929TIP3    H219915   3.070   1.126   3.429
 3930TIP3   OH219916   3.307   1.298   2.386
 3930TIP3    H119917   3.306   1.250   2.473
 3930TIP3    H219918   3.213   1.292   2.365
 3931TIP3   OH219919   3.364   1.641   3.655
 3931TIP3    H119920   3.288   1.586   3.684
 3931TIP3    H219921   3.325   1.695   3.584
 3932TIP3   OH219922   3.706   1.729   2.379
 3932TIP3    H119923   3.766   1.797   2.347
 3932TIP3    H219924   3.642   1.783   2.431
 3933TIP3   OH219925   2.148   0.376   3.586
 3933TIP3    H119926   2.071   0.371   3.526
 3933TIP3    H219927   2.108   0.336   3.665
 3934TIP3   OH219928   3.371   1.156   2.611
 3934TIP3    H119929   3.344   1.068   2.643
 3934TIP3    H219930   3.467   1.142   2.600
 3935TIP3   OH219931   2.098   1.529   3.450
 3935TIP3    H119932   2.164   1.459   3.461
 3935TIP3    H219933   2.108   1.573   3.536
 3936TIP3   OH219934   2.673   1.464   2.225
 3936TIP3    H119935   2.680   1.400   2.152
 3936TIP3    H219936   2.623   1.412   2.290
 3937TIP3   OH219937   2.563   1.348   2.460
 3937TIP3    H119938   2.634   1.300   2.505
 3937TIP3    H219939   2.576   1.439   2.497
 3938TIP3   OH219940   2.260   1.089   2.529
 3938TIP3    H119941   2.179   1.123   2.573
 3938TIP3    H219942   2.291   1.168   2.480
 3939TIP3   OH219943   3.004   0.371   3.546
 3939TIP3    H119944   3.093   0.387   3.584
 3939TIP3    H219945   2.975   0.292   3.594
 3940TIP3   OH219946   3.125   0.265   2.631
 3940TIP3    H119947   3.127   0.308   2.542
 3940TIP3    H219948   3.153   0.337   2.691
 3941TIP3   OH219949   2.855   1.537   2.524
 3941TIP3    H119950   2.767   1.564   2.557
 3941TIP3    H219951   2.894   1.624   2.504
 3942TIP3   OH219952   2.797   0.542   2.745
 3942TIP3    H119953   2.877   0.592   2.770
 3942TIP3    H219954   2.781   0.483   2.822
 3943TIP3   OH219955   2.888   0.605   3.613
 3943TIP3    H119956   2.838   0.562   3.684
 3943TIP3    H219957   2.944   0.529   3.582
 3944TIP3   OH219958   2.879   0.227   2.808
 3944TIP3    H119959   2.859   0.233   2.904
 3944TIP3    H219960   2.961   0.279   2.803
 3945TIP3   OH219961   2.589   1.595   2.542
 3945TIP3    H119962   2.593   1.673   2.480
 3945TIP3    H219963   2.553   1.643   2.620
 3946TIP3   OH219964   2.386   0.349   2.473
 3946TIP3    H119965   2.376   0.422   2.535
 3946TIP3    H219966   2.473   0.316   2.502
 3947TIP3   OH219967   3.436   0.383   3.716
 3947TIP3    H119968   3.351   0.429   3.733
 3947TIP3    H219969   3.418   0.359   3.622
 3948TIP3   OH219970   3.365   0.786   3.136
 3948TIP3    H119971   3.287   0.728   3.119
 3948TIP3    H219972   3.426   0.724   3.183
 3949TIP3   OH219973   2.289   1.325   2.371
 3949TIP3    H119974   2.368   1.358   2.419
 3949TIP3    H219975   2.331   1.272   2.301
 3950TIP3   OH219976   2.105   0.621   2.307
 3950TIP3    H119977   2.160   0.692   2.347
 3950TIP3    H219978   2.028   0.669   2.274
 3951TIP3   OH219979   3.424   1.655   3.286
 3951TIP3    H119980   3.416   1.710   3.205
 3951TIP3    H219981   3.521   1.645   3.294
 3952TIP3   OH219982   2.214   0.102   3.181
 3952TIP3    H119983   2.213   0.138   3.091
 3952TIP3    H219984   2.155   0.025   3.166
 3953TIP3   OH219985   2.018   1.434   2.738
 3953TIP3    H119986   1.967   1.509   2.770
 3953TIP3    H219987   2.080   1.484   2.682
 3954TIP3   OH219988   2.002   1.709   3.894
 3954TIP3    H119989   2.089   1.669   3.910
 3954TIP3    H219990   1.951   1.634   3.856
 3955TIP3   OH219991   2.894   1.647   2.221
 3955TIP3    H119992   2.843   1.565   2.241
 3955TIP3    H219993   2.972   1.610   2.176
 3956TIP3   OH219994   3.345   1.546   2.235
 3956TIP3    H119995   3.351   1.474   2.302
 3956TIP3    H219996   3.425   1.531   2.183
 3957TIP3   OH219997   2.447   1.149   2.212
 3957TIP3    H119998   2.496   1.141   2.296
 3957TIP3    H219999   2.519   1.127   2.148
 3958TIP3   OH220000   2.644   1.127   3.910
 3958TIP3    H120001   2.603   1.210   3.875
 3958TIP3    H220002   2.640   1.070   3.830
 3959TIP3   OH220003   2.977   1.308   2.185
 3959TIP3    H120004   2.972   1.303   2.283
 3959TIP3    H220005   2.985   1.212   2.166
 3960TIP3   OH220006   3.221   1.137   3.745
 3960TIP3    H120007   3.316   1.158   3.732
 3960TIP3    H220008   3.184   1.227   3.749
 3961TIP3   OH220009   2.053   0.810   3.989
 3961TIP3    H120010   2.122   0.818   3.922
 3961TIP3    H220011   2.107   0.819   4.073
 3962TIP3   OH220012   2.566   0.968   2.472
 3962TIP3    H120013   2.489   0.908   2.469
 3962TIP3    H220014   2.633   0.916   2.422
 3963TIP3   OH220015   2.391   0.784   3.631
 3963TIP3    H120016   2.359   0.876   3.638
 3963TIP3    H220017   2.487   0.801   3.628
 3964TIP3   OH220018   2.679   0.796   2.279
 3964TIP3    H120019   2.677   0.816   2.184
 3964TIP3    H220020   2.774   0.810   2.301
 3965TIP3   OH220021   3.609   1.001   2.218
 3965TIP3    H120022   3.583   0.977   2.127
 3965TIP3    H220023   3.590   1.098   2.223
 3966TIP3   OH220024   2.514   0.533   3.761
 3966TIP3    H120025   2.542   0.453   3.711
 3966TIP3    H220026   2.502   0.598   3.690
 3967TIP3   OH220027   2.581   0.312   3.599
 3967TIP3    H120028   2.646   0.358   3.539
 3967TIP3    H220029   2.499   0.316   3.545
 3968TIP3   OH220030   2.640   0.908   3.650
 3968TIP3    H120031   2.726   0.875   3.621
 3968TIP3    H220032   2.614   0.965   3.575
 3969TIP3   OH220033   3.242   0.922   3.893
 3969TIP3    H120034   3.202   1.005   3.856
 3969TIP3    H220035   3.324   0.919   3.840
 3970TIP3   OH220036   2.351   0.550   3.973
 3970TIP3    H120037   2.288   0.587   3.911
 3970TIP3    H220038   2.426   0.535   3.911
 3971TIP3   OH220039   2.665   0.053   3.576
 3971TIP3    H120040   2.643   0.149   3.583
 3971TIP3    H220041   2.580   0.017   3.548
 3972TIP3   OH220042   3.075   0.360   3.884
 3972TIP3    H120043   3.027   0.276   3.871
 3972TIP3    H220044   3.079   0.369   3.983
 3973TIP3   OH220045   2.664   4.422   3.814
 3973TIP3    H120046   2.755   4.396   3.835
 3973TIP3    H220047   2.676   4.470   3.729
 3974TIP3   OH220048   2.623   1.836   2.438
 3974TIP3    H120049   2.719   1.845   2.446
 3974TIP3    H220050   2.605   1.906   2.371
 3975TIP3   OH220051   2.021   1.332   2.359
 3975TIP3    H120052   2.120   1.328   2.356
 3975TIP3    H220053   2.001   1.270   2.285
 3976TIP3   OH220054   1.902   1.786   2.864
 3976TIP3    H120055   1.823   1.737   2.828
 3976TIP3    H220056   1.941   1.722   2.929
 3977TIP3   OH220057   2.016   1.617   3.041
 3977TIP3    H120058   1.948   1.560   3.083
 3977TIP3    H220059   2.059   1.654   3.120
 3978TIP3   OH220060   3.700   1.638   3.304
 3978TIP3    H120061   3.745   1.679   3.380
 3978TIP3    H220062   3.742   1.686   3.230
 3979TIP3   OH220063   3.692   1.663   3.611
 3979TIP3    H120064   3.638   1.600   3.559
 3979TIP3    H220065   3.729   1.599   3.675
 3980TIP3   OH220066   3.487   1.271   4.086
 3980TIP3    H120067   3.432   1.337   4.132
 3980TIP3    H220068   3.559   1.325   4.049
 3981TIP3   OH220069   3.639   1.110   2.603
 3981TIP3    H120070   3.725   1.156   2.617
 3981TIP3    H220071   3.638   1.044   2.676
 3982TIP3   OH220072   3.663   0.916   2.806
 3982TIP3    H120073   3.595   0.855   2.843
 3982TIP3    H220074   3.671   0.976   2.882
 3983TIP3   OH220075   3.634   1.192   3.284
 3983TIP3    H120076   3.708   1.129   3.268
 3983TIP3    H220077   3.670   1.272   3.243
 3984TIP3   OH220078   3.525   1.466   3.520
 3984TIP3    H120079   3.460   1.528   3.559
 3984TIP3    H220080   3.482   1.438   3.437
 3985TIP3   OH220081   3.739   0.884   2.445
 3985TIP3    H120082   3.674   0.908   2.375
 3985TIP3    H220083   3.732   0.961   2.503
 3986TIP3   OH220084   3.581   0.629   2.262
 3986TIP3    H120085   3.618   0.699   2.206
 3986TIP3    H220086   3.541   0.568   2.197
 3987TIP3   OH220087   3.466   0.767   2.895
 3987TIP3    H120088   3.459   0.670   2.899
 3987TIP3    H220089   3.430   0.790   2.985
 3988TIP3   OH220090   1.961   1.016   3.272
 3988TIP3    H120091   1.965   0.970   3.185
 3988TIP3    H220092   2.049   0.989   3.307
 3989TIP3   OH220093   3.555   0.952   3.829
 3989TIP3    H120094   3.645   0.923   3.803
 3989TIP3    H220095   3.572   1.046   3.846
 3990TIP3   OH220096   3.522   0.378   2.181
 3990TIP3    H120097   3.559   0.342   2.263
 3990TIP3    H220098   3.425   0.364   2.193
 3991TIP3   OH220099   3.393   0.569   2.725
 3991TIP3    H120100   3.432   0.479   2.735
 3991TIP3    H220101   3.472   0.620   2.707
 3992TIP3   OH220102   3.516   0.611   3.276
 3992TIP3    H120103   3.614   0.610   3.281
 3992TIP3    H220104   3.496   0.609   3.373
 3993TIP3   OH220105   3.482   0.643   3.546
 3993TIP3    H120106   3.389   0.669   3.564
 3993TIP3    H220107   3.529   0.725   3.569
 3994TIP3   OH220108   3.723  -0.047   3.977
 3994TIP3    H120109   3.631  -0.078   3.976
 3994TIP3    H220110   3.707   0.049   3.979
 3995TIP3   OH220111   3.490   0.323   2.751
 3995TIP3    H120112   3.521   0.262   2.821
 3995TIP3    H220113   3.466   0.257   2.683
 3996TIP3   OH220114   2.080   0.314   3.269
 3996TIP3    H120115   2.141   0.241   3.249
 3996TIP3    H220116   2.133   0.394   3.248
 3997TIP3   OH220117   1.906   0.604   3.297
 3997TIP3    H120118   1.951   0.621   3.212
 3997TIP3    H220119   1.965   0.646   3.361
 3998TIP3   OH220120   3.633   0.208   3.926
 3998TIP3    H120121   3.568   0.280   3.921
 3998TIP3    H220122   3.621   0.165   3.839
 3999TIP3   OH220123   3.691   0.236   2.424
 3999TIP3    H120124   3.736   0.193   2.348
 3999TIP3    H220125   3.759   0.296   2.463
 4000TIP3   OH220126   1.899   0.236   2.688
 4000TIP3    H120127   1.804   0.224   2.670
 4000TIP3    H220128   1.921   0.308   2.625
 4001TIP3   OH220129   3.379   1.734   2.879
 4001TIP3    H120130   3.466   1.726   2.833
 4001TIP3    H220131   3.390   1.815   2.932
 4002TIP3   OH220132   1.897   0.124   3.490
 4002TIP3    H120133   1.829   0.079   3.543
 4002TIP3    H220134   1.846   0.192   3.441
 4003TIP3   OH220135   2.420   1.551   3.509
 4003TIP3    H120136   2.411   1.649   3.514
 4003TIP3    H220137   2.517   1.551   3.491
 4004TIP3   OH220138   2.880   1.705   3.839
 4004TIP3    H120139   2.868   1.704   3.935
 4004TIP3    H220140   2.971   1.742   3.834
 4005TIP3   OH220141   3.127   1.833   3.817
 4005TIP3    H120142   3.156   1.851   3.727
 4005TIP3    H220143   3.200   1.870   3.871
 4006TIP3   OH220144   3.603   0.072   3.691
 4006TIP3    H120145   3.520   0.107   3.659
 4006TIP3    H220146   3.572  -0.013   3.729
 4007TIP3   OH220147   2.163   1.889   3.554
 4007TIP3    H120148   2.088   1.943   3.522
 4007TIP3    H220149   2.150   1.892   3.651
 4008TIP3   OH220150   2.398   1.819   3.458
 4008TIP3    H120151   2.306   1.835   3.493
 4008TIP3    H220152   2.395   1.872   3.376
 4009TIP3   OH220153   2.869   1.799   3.370
 4009TIP3    H120154   2.798   1.856   3.332
 4009TIP3    H220155   2.885   1.848   3.454
 4010TIP3   OH220156   3.099   1.674   3.506
 4010TIP3    H120157   3.038   1.709   3.438
 4010TIP3    H220158   3.173   1.737   3.490
 4011TIP3   OH220159   3.307   1.832   3.452
 4011TIP3    H120160   3.324   1.923   3.423
 4011TIP3    H220161   3.359   1.781   3.387
 4012TIP3   OH220162   2.142   1.714   3.253
 4012TIP3    H120163   2.118   1.653   3.327
 4012TIP3    H220164   2.232   1.678   3.231
 4013TIP3   OH220165   2.345   1.600   3.124
 4013TIP3    H120166   2.327   1.503   3.123
 4013TIP3    H220167   2.433   1.604   3.168
 4014TIP3   OH220168   2.584   1.604   3.235
 4014TIP3    H120169   2.611   1.511   3.224
 4014TIP3    H220170   2.619   1.620   3.326
 4015TIP3   OH220171   2.885   0.221   3.094
 4015TIP3    H120172   2.816   0.160   3.127
 4015TIP3    H220173   2.964   0.166   3.095
 4016TIP3   OH220174   3.384   0.146   3.146
 4016TIP3    H120175   3.450   0.133   3.076
 4016TIP3    H220176   3.299   0.129   3.101
 4017TIP3   OH220177   3.608   0.173   2.948
 4017TIP3    H120178   3.677   0.108   2.932
 4017TIP3    H220179   3.662   0.255   2.962
 4018TIP3   OH220180   2.172   0.073   2.913
 4018TIP3    H120181   2.119   0.020   2.848
 4018TIP3    H220182   2.215   0.002   2.964
 4019TIP3   OH220183   2.043   0.062   2.515
 4019TIP3    H120184   2.090   0.114   2.445
 4019TIP3    H220185   1.977   0.129   2.543
 4020TIP3   OH220186   2.630   0.015   2.864
 4020TIP3    H120187   2.674   0.084   2.812
 4020TIP3    H220188   2.649   0.043   2.956
 4021TIP3   OH220189   3.138   0.128   3.014
 4021TIP3    H120190   3.123   0.127   2.919
 4021TIP3    H220191   3.114   0.037   3.039
 4022TIP3   OH220192   3.312   0.067   2.653
 4022TIP3    H120193   3.236   0.129   2.656
 4022TIP3    H220194   3.304   0.017   2.735
 4023TIP3   OH220195   2.057   1.657   2.592
 4023TIP3    H120196   1.961   1.658   2.576
 4023TIP3    H220197   2.078   1.748   2.563
 4024TIP3   OH220198   2.181   0.222   2.337
 4024TIP3    H120199   2.246   0.169   2.286
 4024TIP3    H220200   2.239   0.270   2.399
 4025TIP3   OH220201   2.730   0.284   2.580
 4025TIP3    H120202   2.778   0.243   2.656
 4025TIP3    H220203   2.738   0.378   2.603
 4026TIP3   OH220204   2.949   1.807   2.445
 4026TIP3    H120205   3.045   1.792   2.431
 4026TIP3    H220206   2.918   1.780   2.356
 4027TIP3   OH220207   3.594   1.697   2.716
 4027TIP3    H120208   3.554   1.629   2.658
 4027TIP3    H220209   3.591   1.775   2.656
 4028TIP3   OH220210   2.128   0.079   3.833
 4028TIP3    H120211   2.190   0.007   3.852
 4028TIP3    H220212   2.168   0.145   3.891
 4029TIP3   OH220213   2.126   1.712   2.286
 4029TIP3    H120214   2.109   1.778   2.356
 4029TIP3    H220215   2.196   1.657   2.325
 4030TIP3   OH220216   3.180   4.506   3.952
 4030TIP3    H120217   3.209   4.428   4.007
 4030TIP3    H220218   3.258   4.563   3.958
 4031TIP3   OH220219   3.522   1.602   3.875
 4031TIP3    H120220   3.467   1.623   3.797
 4031TIP3    H220221   3.508   1.679   3.931
 4032TIP3   OH220222   4.020   0.897   3.454
 4032TIP3    H120223   4.004   0.812   3.500
 4032TIP3    H220224   4.113   0.893   3.429
 4033TIP3   OH220225   4.174   1.337   3.223
 4033TIP3    H120226   4.107   1.270   3.201
 4033TIP3    H220227   4.254   1.282   3.210
 4034TIP3   OH220228   3.832   0.707   2.768
 4034TIP3    H120229   3.782   0.788   2.786
 4034TIP3    H220230   3.798   0.690   2.678
 4035TIP3   OH220231   3.918   0.907   3.047
 4035TIP3    H120232   3.917   0.808   3.049
 4035TIP3    H220233   3.927   0.928   2.954
 4036TIP3   OH220234   4.261   0.382   3.036
 4036TIP3    H120235   4.354   0.401   3.009
 4036TIP3    H220236   4.217   0.362   2.951
 4037TIP3   OH220237   3.947   0.647   3.091
 4037TIP3    H120238   4.024   0.629   3.149
 4037TIP3    H220239   3.974   0.597   3.011
 4038TIP3   OH220240   4.184   0.311   3.448
 4038TIP3    H120241   4.139   0.353   3.373
 4038TIP3    H220242   4.129   0.340   3.522
 4039TIP3   OH220243   4.418   1.053   3.456
 4039TIP3    H120244   4.349   1.123   3.448
 4039TIP3    H220245   4.476   1.067   3.379
 4040TIP3   OH220246   4.159   0.532   3.240
 4040TIP3    H120247   4.234   0.554   3.298
 4040TIP3    H220248   4.206   0.510   3.156
 4041TIP3   OH220249   4.249   1.240   3.537
 4041TIP3    H120250   4.258   1.325   3.490
 4041TIP3    H220251   4.167   1.257   3.590
 4042TIP3   OH220252   3.902   1.209   2.606
 4042TIP3    H120253   3.897   1.268   2.527
 4042TIP3    H220254   3.905   1.277   2.676
 4043TIP3   OH220255   4.333   0.972   2.949
 4043TIP3    H120256   4.308   0.932   2.864
 4043TIP3    H220257   4.418   0.925   2.964
 4044TIP3   OH220258   4.430   1.232   3.183
 4044TIP3    H120259   4.427   1.281   3.097
 4044TIP3    H220260   4.495   1.285   3.233
 4045TIP3   OH220261   4.290   0.881   3.291
 4045TIP3    H120262   4.334   0.904   3.208
 4045TIP3    H220263   4.335   0.944   3.351
 4046TIP3   OH220264   4.393   1.245   3.769
 4046TIP3    H120265   4.339   1.326   3.778
 4046TIP3    H220266   4.366   1.222   3.678
 4047TIP3   OH220267   4.179   0.922   3.710
 4047TIP3    H120268   4.172   1.003   3.762
 4047TIP3    H220269   4.089   0.910   3.677
 4048TIP3   OH220270   4.242   1.507   3.795
 4048TIP3    H120271   4.213   1.500   3.702
 4048TIP3    H220272   4.156   1.496   3.842
 4049TIP3   OH220273   4.245   0.853   2.700
 4049TIP3    H120274   4.187   0.926   2.670
 4049TIP3    H220275   4.187   0.797   2.755
 4050TIP3   OH220276   3.833   1.110   3.606
 4050TIP3    H120277   3.787   1.133   3.525
 4050TIP3    H220278   3.881   1.031   3.574
 4051TIP3   OH220279   3.834   1.413   3.211
 4051TIP3    H120280   3.914   1.399   3.263
 4051TIP3    H220281   3.783   1.470   3.271
 4052TIP3   OH220282   4.145   1.674   2.894
 4052TIP3    H120283   4.173   1.632   2.980
 4052TIP3    H220284   4.059   1.632   2.878
 4053TIP3   OH220285   4.045   1.251   3.702
 4053TIP3    H120286   4.052   1.222   3.795
 4053TIP3    H220287   3.960   1.209   3.675
 4054TIP3   OH220288   4.311   0.074   3.248
 4054TIP3    H120289   4.216   0.080   3.222
 4054TIP3    H220290   4.346   0.159   3.217
 4055TIP3   OH220291   4.272   0.660   3.458
 4055TIP3    H120292   4.180   0.688   3.444
 4055TIP3    H220293   4.317   0.714   3.391
 4056TIP3   OH220294   4.230   0.655   2.914
 4056TIP3    H120295   4.145   0.612   2.896
 4056TIP3    H220296   4.293   0.594   2.872
 4057TIP3   OH220297   4.024   0.661   3.593
 4057TIP3    H120298   4.117   0.636   3.609
 4057TIP3    H220299   3.984   0.572   3.597
 4058TIP3   OH220300   4.420   0.388   2.253
 4058TIP3    H120301   4.356   0.339   2.306
 4058TIP3    H220302   4.365   0.459   2.217
 4059TIP3   OH220303   3.779   0.363   3.009
 4059TIP3    H120304   3.838   0.357   3.087
 4059TIP3    H220305   3.840   0.381   2.936
 4060TIP3   OH220306   3.876   0.422   2.503
 4060TIP3    H120307   3.937   0.441   2.429
 4060TIP3    H220308   3.833   0.509   2.512
 4061TIP3   OH220309   4.000   0.521   2.858
 4061TIP3    H120310   3.941   0.583   2.808
 4061TIP3    H220311   4.023   0.453   2.793
 4062TIP3   OH220312   4.385   0.539   2.684
 4062TIP3    H120313   4.470   0.575   2.720
 4062TIP3    H220314   4.355   0.612   2.627
 4063TIP3   OH220315   4.313   0.711   2.409
 4063TIP3    H120316   4.236   0.653   2.405
 4063TIP3    H220317   4.355   0.688   2.325
 4064TIP3   OH220318   4.162   1.139   3.926
 4064TIP3    H120319   4.253   1.165   3.906
 4064TIP3    H220320   4.144   1.187   4.010
 4065TIP3   OH220321   4.178   0.263   2.785
 4065TIP3    H120322   4.105   0.207   2.822
 4065TIP3    H220323   4.254   0.207   2.809
 4066TIP3   OH220324   4.137   1.067   3.139
 4066TIP3    H120325   4.203   1.061   3.067
 4066TIP3    H220326   4.114   0.974   3.151
 4067TIP3   OH220327   3.805   0.859   3.753
 4067TIP3    H120328   3.881   0.801   3.743
 4067TIP3    H220329   3.767   0.855   3.662
 4068TIP3   OH220330   4.385   1.377   2.952
 4068TIP3    H120331   4.391   1.315   2.877
 4068TIP3    H220332   4.318   1.436   2.916
 4069TIP3   OH220333   4.059   0.917   2.346
 4069TIP3    H120334   4.103   0.956   2.425
 4069TIP3    H220335   3.971   0.959   2.350
 4070TIP3   OH220336   4.403   1.703   2.806
 4070TIP3    H120337   4.307   1.702   2.828
 4070TIP3    H220338   4.443   1.695   2.896
 4071TIP3   OH220339   3.945   0.384   3.583
 4071TIP3    H120340   3.851   0.406   3.564
 4071TIP3    H220341   3.940   0.287   3.585
 4072TIP3   OH220342   3.976   1.522   3.478
 4072TIP3    H120343   4.053   1.463   3.487
 4072TIP3    H220344   3.971   1.561   3.567
 4073TIP3   OH220345   4.399   1.374   2.533
 4073TIP3    H120346   4.450   1.349   2.454
 4073TIP3    H220347   4.398   1.471   2.527
 4074TIP3   OH220348   4.128   1.080   2.539
 4074TIP3    H120349   4.037   1.107   2.567
 4074TIP3    H220350   4.164   1.168   2.516
 4075TIP3   OH220351   4.399   1.671   2.531
 4075TIP3    H120352   4.382   1.755   2.486
 4075TIP3    H220353   4.393   1.691   2.627
 4076TIP3   OH220354   4.267   0.311   2.460
 4076TIP3    H120355   4.231   0.324   2.550
 4076TIP3    H220356   4.360   0.301   2.484
 4077TIP3   OH220357   4.160   1.337   2.398
 4077TIP3    H120358   4.232   1.366   2.458
 4077TIP3    H220359   4.210   1.277   2.337
 4078TIP3   OH220360   4.017   0.625   2.295
 4078TIP3    H120361   4.022   0.699   2.357
 4078TIP3    H220362   4.002   0.675   2.213
 4079TIP3   OH220363   4.046   0.087   3.203
 4079TIP3    H120364   4.029   0.095   3.107
 4079TIP3    H220365   4.023  -0.007   3.213
 4080TIP3   OH220366   3.887   1.442   2.753
 4080TIP3    H120367   3.846   1.504   2.814
 4080TIP3    H220368   3.917   1.504   2.683
 4081TIP3   OH220369   3.896   1.751   3.897
 4081TIP3    H120370   3.962   1.726   3.963
 4081TIP3    H220371   3.842   1.671   3.891
 4082TIP3   OH220372   4.214   1.636   4.126
 4082TIP3    H120373   4.255   1.645   4.216
 4082TIP3    H220374   4.155   1.562   4.145
 4083TIP3   OH220375   4.279   1.161   2.237
 4083TIP3    H120376   4.274   1.076   2.281
 4083TIP3    H220377   4.372   1.160   2.205
 4084TIP3   OH220378   4.423   0.961   2.435
 4084TIP3    H120379   4.419   0.983   2.528
 4084TIP3    H220380   4.378   0.874   2.437
 4085TIP3   OH220381   4.346   0.723   3.749
 4085TIP3    H120382   4.284   0.798   3.737
 4085TIP3    H220383   4.365   0.702   3.656
 4086TIP3   OH220384   4.260   0.469   3.727
 4086TIP3    H120385   4.337   0.411   3.711
 4086TIP3    H220386   4.305   0.552   3.755
 4087TIP3   OH220387   4.454   0.360   3.543
 4087TIP3    H120388   4.477   0.438   3.490
 4087TIP3    H220389   4.369   0.335   3.502
 4088TIP3   OH220390   3.904   1.328   2.357
 4088TIP3    H120391   4.002   1.333   2.356
 4088TIP3    H220392   3.885   1.264   2.285
 4089TIP3   OH220393   3.782   1.796   2.871
 4089TIP3    H120394   3.706   1.752   2.825
 4089TIP3    H220395   3.800   1.733   2.943
 4090TIP3   OH220396   3.880   1.618   3.044
 4090TIP3    H120397   3.852   1.532   3.083
 4090TIP3    H220398   3.939   1.654   3.114
 4091TIP3   OH220399   3.849   1.028   3.276
 4091TIP3    H120400   3.868   0.981   3.191
 4091TIP3    H220401   3.935   1.014   3.320
 4092TIP3   OH220402   3.943   0.345   3.233
 4092TIP3    H120403   3.977   0.253   3.228
 4092TIP3    H220404   4.023   0.398   3.213
 4093TIP3   OH220405   3.784   0.615   3.313
 4093TIP3    H120406   3.818   0.584   3.228
 4093TIP3    H220407   3.866   0.647   3.351
 4094TIP3   OH220408   3.765   0.264   2.703
 4094TIP3    H120409   3.675   0.301   2.713
 4094TIP3    H220410   3.803   0.325   2.637
 4095TIP3   OH220411   3.744   0.103   3.464
 4095TIP3    H120412   3.711   0.080   3.553
 4095TIP3    H220413   3.672   0.159   3.426
 4096TIP3   OH220414   3.998   1.470   3.913
 4096TIP3    H120415   3.902   1.460   3.898
 4096TIP3    H220416   4.010   1.418   3.994
 4097TIP3   OH220417   4.278   1.505   3.529
 4097TIP3    H120418   4.280   1.595   3.487
 4097TIP3    H220419   4.358   1.512   3.583
 4098TIP3   OH220420   4.069   1.835   3.566
 4098TIP3    H120421   4.000   1.883   3.516
 4098TIP3    H220422   4.040   1.855   3.657
 4099TIP3   OH220423   4.296   1.749   3.450
 4099TIP3    H120424   4.213   1.775   3.498
 4099TIP3    H220425   4.315   1.833   3.403
 4100TIP3   OH220426   4.017   1.707   3.275
 4100TIP3    H120427   4.000   1.670   3.365
 4100TIP3    H220428   4.100   1.661   3.250
 4101TIP3   OH220429   4.215   1.578   3.129
 4101TIP3    H120430   4.189   1.487   3.155
 4101TIP3    H220431   4.304   1.585   3.172
 4102TIP3   OH220432   4.443   1.621   3.256
 4102TIP3    H120433   4.470   1.549   3.317
 4102TIP3    H220434   4.419   1.694   3.318
 4103TIP3   OH220435   4.016   0.095   2.929
 4103TIP3    H120436   3.959   0.044   2.867
 4103TIP3    H220437   4.092   0.033   2.938
 4104TIP3   OH220438   3.906   0.050   2.506
 4104TIP3    H120439   3.967   0.106   2.452
 4104TIP3    H220440   3.848   0.119   2.542
 4105TIP3   OH220441   3.917   1.641   2.570
 4105TIP3    H120442   3.822   1.651   2.549
 4105TIP3    H220443   3.950   1.730   2.553
 4106TIP3   OH220444   4.069   0.186   2.337
 4106TIP3    H120445   4.125   0.138   2.272
 4106TIP3    H220446   4.140   0.236   2.385
 4107TIP3   OH220447   4.111   1.760   2.314
 4107TIP3    H120448   4.040   1.796   2.370
 4107TIP3    H220449   4.109   1.666   2.335
 4108TIP3   OH220450   1.227   2.880   2.884
 4108TIP3    H120451   1.208   2.973   2.908
 4108TIP3    H220452   1.150   2.857   2.831
 4109TIP3   OH220453   1.098   2.752   3.208
 4109TIP3    H120454   1.093   2.711   3.296
 4109TIP3    H220455   1.021   2.714   3.166
 4110TIP3   OH220456   0.290   2.717   3.386
 4110TIP3    H120457   0.295   2.634   3.439
 4110TIP3    H220458   0.363   2.767   3.424
 4111TIP3   OH220459   1.409   3.092   3.083
 4111TIP3    H120460   1.404   3.020   3.148
 4111TIP3    H220461   1.441   3.167   3.138
 4112TIP3   OH220462   0.397   3.218   3.229
 4112TIP3    H120463   0.368   3.134   3.185
 4112TIP3    H220464   0.493   3.199   3.235
 4113TIP3   OH220465   0.097   2.538   2.792
 4113TIP3    H120466   0.094   2.631   2.818
 4113TIP3    H220467   0.032   2.499   2.854
 4114TIP3   OH220468   0.096   2.754   3.039
 4114TIP3    H120469   0.137   2.666   3.059
 4114TIP3    H220470   0.169   2.806   3.001
 4115TIP3   OH220471   1.139   3.597   3.101
 4115TIP3    H120472   1.207   3.545   3.053
 4115TIP3    H220473   1.109   3.530   3.164
 4116TIP3   OH220474   0.925   3.061   3.265
 4116TIP3    H120475   0.973   2.986   3.228
 4116TIP3    H220476   0.997   3.102   3.316
 4117TIP3   OH220477   1.752   2.163   3.333
 4117TIP3    H120478   1.757   2.231   3.403
 4117TIP3    H220479   1.837   2.182   3.289
 4118TIP3   OH220480   1.250   2.492   3.341
 4118TIP3    H120481   1.239   2.405   3.385
 4118TIP3    H220482   1.260   2.464   3.248
 4119TIP3   OH220483   0.583   2.254   3.001
 4119TIP3    H120484   0.596   2.348   2.975
 4119TIP3    H220485   0.516   2.226   2.934
 4120TIP3   OH220486   1.282   2.295   2.863
 4120TIP3    H120487   1.341   2.262   2.936
 4120TIP3    H220488   1.326   2.379   2.844
 4121TIP3   OH220489   0.232   2.517   3.087
 4121TIP3    H120490   0.303   2.470   3.135
 4121TIP3    H220491   0.256   2.489   2.997
 4122TIP3   OH220492   0.692   2.701   3.088
 4122TIP3    H120493   0.775   2.661   3.118
 4122TIP3    H220494   0.658   2.623   3.038
 4123TIP3   OH220495   1.770   2.321   3.564
 4123TIP3    H120496   1.735   2.408   3.532
 4123TIP3    H220497   1.782   2.342   3.657
 4124TIP3   OH220498   0.499   2.167   3.412
 4124TIP3    H120499   0.467   2.236   3.350
 4124TIP3    H220500   0.448   2.193   3.492
 4125TIP3   OH220501   1.129   3.135   2.790
 4125TIP3    H120502   1.115   3.119   2.694
 4125TIP3    H220503   1.112   3.231   2.792
 4126TIP3   OH220504   0.701   2.976   3.432
 4126TIP3    H120505   0.642   3.053   3.451
 4126TIP3    H220506   0.769   3.018   3.376
 4127TIP3   OH220507   1.497   2.237   3.038
 4127TIP3    H120508   1.480   2.207   3.128
 4127TIP3    H220509   1.592   2.258   3.044
 4128TIP3   OH220510   0.424   2.363   3.216
 4128TIP3    H120511   0.481   2.431   3.258
 4128TIP3    H220512   0.484   2.324   3.149
 4129TIP3   OH220513   0.567   3.216   3.525
 4129TIP3    H120514   0.561   3.313   3.526
 4129TIP3    H220515   0.481   3.191   3.564
 4130TIP3   OH220516   0.136   3.106   2.573
 4130TIP3    H120517   0.144   3.192   2.528
 4130TIP3    H220518   0.139   3.131   2.667
 4131TIP3   OH220519   1.481   3.290   3.266
 4131TIP3    H120520   1.387   3.301   3.289
 4131TIP3    H220521   1.502   3.381   3.238
 4132TIP3   OH220522   1.477   2.109   3.398
 4132TIP3    H120523   1.447   2.199   3.379
 4132TIP3    H220524   1.560   2.106   3.347
 4133TIP3   OH220525   0.820   1.898   3.178
 4133TIP3    H120526   0.792   1.811   3.145
 4133TIP3    H220527   0.732   1.940   3.195
 4134TIP3   OH220528   1.343   3.462   2.962
 4134TIP3    H120529   1.349   3.379   2.910
 4134TIP3    H220530   1.416   3.513   2.919
 4135TIP3   OH220531   1.416   3.243   2.793
 4135TIP3    H120532   1.409   3.179   2.720
 4135TIP3    H220533   1.412   3.184   2.871
 4136TIP3   OH220534   1.588   3.104   3.656
 4136TIP3    H120535   1.622   3.035   3.595
 4136TIP3    H220536   1.621   3.183   3.610
 4137TIP3   OH220537   1.049   2.797   2.629
 4137TIP3    H120538   1.015   2.889   2.635
 4137TIP3    H220539   1.139   2.810   2.593
 4138TIP3   OH220540   1.078   2.699   2.331
 4138TIP3    H120541   1.117   2.739   2.411
 4138TIP3    H220542   1.112   2.609   2.338
 4139TIP3   OH220543   1.803   2.750   3.443
 4139TIP3    H120544   1.752   2.833   3.452
 4139TIP3    H220545   1.863   2.776   3.370
 4140TIP3   OH220546   1.460   2.775   2.738
 4140TIP3    H120547   1.397   2.826   2.793
 4140TIP3    H220548   1.506   2.720   2.804
 4141TIP3   OH220549   1.385   2.649   3.629
 4141TIP3    H120550   1.406   2.742   3.647
 4141TIP3    H220551   1.314   2.657   3.564
 4142TIP3   OH220552   0.568   2.900   2.936
 4142TIP3    H120553   0.513   2.859   2.865
 4142TIP3    H220554   0.600   2.823   2.987
 4143TIP3   OH220555   0.665   3.175   3.166
 4143TIP3    H120556   0.652   3.206   3.074
 4143TIP3    H220557   0.758   3.146   3.164
 4144TIP3   OH220558   0.578   2.756   3.329
 4144TIP3    H120559   0.599   2.766   3.234
 4144TIP3    H220560   0.630   2.830   3.366
 4145TIP3   OH220561   1.229   3.319   3.353
 4145TIP3    H120562   1.252   3.364   3.435
 4145TIP3    H220563   1.192   3.235   3.387
 4146TIP3   OH220564   0.681   3.164   3.766
 4146TIP3    H120565   0.621   3.220   3.820
 4146TIP3    H220566   0.640   3.174   3.676
 4147TIP3   OH220567   1.296   2.822   2.536
 4147TIP3    H120568   1.367   2.797   2.600
 4147TIP3    H220569   1.346   2.829   2.451
 4148TIP3   OH220570   0.344   2.850   3.659
 4148TIP3    H120571   0.328   2.858   3.756
 4148TIP3    H220572   0.306   2.933   3.626
 4149TIP3   OH220573   1.035   3.417   2.794
 4149TIP3    H120574   1.015   3.430   2.887
 4149TIP3    H220575   1.006   3.501   2.753
 4150TIP3   OH220576   0.551   3.364   3.889
 4150TIP3    H120577   0.559   3.436   3.823
 4150TIP3    H220578   0.458   3.341   3.881
 4151TIP3   OH220579   1.659   1.886   2.541
 4151TIP3    H120580   1.575   1.918   2.582
 4151TIP3    H220581   1.692   1.970   2.502
 4152TIP3   OH220582   0.421   2.775   2.750
 4152TIP3    H120583   0.415   2.834   2.672
 4152TIP3    H220584   0.415   2.688   2.709
 4153TIP3   OH220585   1.798   3.331   2.416
 4153TIP3    H120586   1.816   3.426   2.402
 4153TIP3    H220587   1.886   3.292   2.392
 4154TIP3   OH220588   0.130   3.047   3.603
 4154TIP3    H120589   0.069   3.036   3.527
 4154TIP3    H220590   0.080   2.999   3.672
 4155TIP3   OH220591   0.100   3.284   3.326
 4155TIP3    H120592   0.183   3.254   3.285
 4155TIP3    H220593   0.137   3.343   3.395
 4156TIP3   OH220594   0.879   3.325   3.803
 4156TIP3    H120595   0.833   3.390   3.859
 4156TIP3    H220596   0.806   3.264   3.781
 4157TIP3   OH220597   1.005   3.668   2.694
 4157TIP3    H120598   1.025   3.703   2.604
 4157TIP3    H220599   0.999   3.752   2.743
 4158TIP3   OH220600   0.407   3.532   2.878
 4158TIP3    H120601   0.416   3.508   2.973
 4158TIP3    H220602   0.355   3.454   2.848
 4159TIP3   OH220603   1.326   3.601   2.386
 4159TIP3    H120604   1.376   3.530   2.338
 4159TIP3    H220605   1.350   3.580   2.479
 4160TIP3   OH220606   1.276   3.610   2.653
 4160TIP3    H120607   1.186   3.620   2.690
 4160TIP3    H220608   1.304   3.529   2.696
 4161TIP3   OH220609   1.609   2.516   3.819
 4161TIP3    H120610   1.586   2.607   3.841
 4161TIP3    H220611   1.524   2.482   3.786
 4162TIP3   OH220612   0.342   3.188   3.672
 4162TIP3    H120613   0.345   3.136   3.754
 4162TIP3    H220614   0.253   3.160   3.638
 4163TIP3   OH220615   0.577   1.996   3.218
 4163TIP3    H120616   0.485   2.011   3.188
 4163TIP3    H220617   0.586   2.074   3.278
 4164TIP3   OH220618   1.038   1.978   3.593
 4164TIP3    H120619   1.066   1.931   3.674
 4164TIP3    H220620   0.941   1.960   3.593
 4165TIP3   OH220621   1.377   2.377   3.709
 4165TIP3    H120622   1.297   2.367   3.763
 4165TIP3    H220623   1.364   2.463   3.664
 4166TIP3   OH220624   1.445   2.883   2.324
 4166TIP3    H120625   1.432   2.878   2.227
 4166TIP3    H220626   1.537   2.914   2.327
 4167TIP3   OH220627   0.998   2.230   2.331
 4167TIP3    H120628   0.971   2.215   2.423
 4167TIP3    H220629   0.938   2.164   2.290
 4168TIP3   OH220630   0.612   2.493   3.374
 4168TIP3    H120631   0.540   2.484   3.440
 4168TIP3    H220632   0.609   2.590   3.358
 4169TIP3   OH220633   0.605   2.506   2.921
 4169TIP3    H120634   0.518   2.540   2.890
 4169TIP3    H220635   0.647   2.487   2.834
 4170TIP3   OH220636   1.156   2.603   2.774
 4170TIP3    H120637   1.110   2.679   2.731
 4170TIP3    H220638   1.210   2.573   2.698
 4171TIP3   OH220639   1.016   2.510   3.887
 4171TIP3    H120640   0.926   2.550   3.896
 4171TIP3    H220641   1.071   2.578   3.930
 4172TIP3   OH220642   1.249   2.540   3.040
 4172TIP3    H120643   1.225   2.631   3.014
 4172TIP3    H220644   1.221   2.493   2.960
 4173TIP3   OH220645   0.364   2.485   3.507
 4173TIP3    H120646   0.389   2.521   3.595
 4173TIP3    H220647   0.318   2.403   3.535
 4174TIP3   OH220648   0.639   2.284   2.255
 4174TIP3    H120649   0.586   2.237   2.323
 4174TIP3    H220650   0.573   2.335   2.203
 4175TIP3   OH220651   0.082   2.244   2.988
 4175TIP3    H120652   0.102   2.258   3.082
 4175TIP3    H220653   0.077   2.146   2.985
 4176TIP3   OH220654   0.109   2.329   2.499
 4176TIP3    H120655   0.176   2.392   2.467
 4176TIP3    H220656   0.069   2.306   2.411
 4177TIP3   OH220657   1.157   2.718   3.480
 4177TIP3    H120658   1.204   2.661   3.415
 4177TIP3    H220659   1.094   2.654   3.520
 4178TIP3   OH220660   0.863   2.271   2.959
 4178TIP3    H120661   0.769   2.250   2.977
 4178TIP3    H220662   0.909   2.200   3.010
 4179TIP3   OH220663   0.343   2.465   2.844
 4179TIP3    H120664   0.256   2.484   2.802
 4179TIP3    H220665   0.344   2.367   2.841
 4180TIP3   OH220666   0.677   2.452   2.660
 4180TIP3    H120667   0.769   2.449   2.627
 4180TIP3    H220668   0.630   2.492   2.586
 4181TIP3   OH220669   1.247   2.196   3.262
 4181TIP3    H120670   1.218   2.172   3.352
 4181TIP3    H220671   1.253   2.111   3.218
 4182TIP3   OH220672   0.549   2.581   2.373
 4182TIP3    H120673   0.520   2.535   2.293
 4182TIP3    H220674   0.639   2.605   2.348
 4183TIP3   OH220675   1.560   3.749   3.959
 4183TIP3    H120676   1.590   3.723   3.871
 4183TIP3    H220677   1.615   3.691   4.015
 4184TIP3   OH220678   0.923   2.499   3.147
 4184TIP3    H120679   1.011   2.495   3.107
 4184TIP3    H220680   0.898   2.405   3.144
 4185TIP3   OH220681   0.390   2.188   2.823
 4185TIP3    H120682   0.361   2.102   2.862
 4185TIP3    H220683   0.429   2.156   2.739
 4186TIP3   OH220684   0.848   2.377   3.456
 4186TIP3    H120685   0.780   2.431   3.410
 4186TIP3    H220686   0.914   2.445   3.480
 4187TIP3   OH220687   0.888   3.013   2.615
 4187TIP3    H120688   0.814   2.961   2.577
 4187TIP3    H220689   0.849   3.039   2.703
 4188TIP3   OH220690   1.639   2.981   3.429
 4188TIP3    H120691   1.680   3.026   3.352
 4188TIP3    H220692   1.549   2.966   3.395
 4189TIP3   OH220693   1.224   2.291   2.473
 4189TIP3    H120694   1.161   2.300   2.399
 4189TIP3    H220695   1.252   2.384   2.485
 4190TIP3   OH220696   0.988   3.061   3.650
 4190TIP3    H120697   0.932   3.003   3.705
 4190TIP3    H220698   0.996   3.143   3.702
 4191TIP3   OH220699   1.302   2.539   2.555
 4191TIP3    H120700   1.363   2.488   2.613
 4191TIP3    H220701   1.366   2.596   2.508
 4192TIP3   OH220702   0.373   2.980   3.110
 4192TIP3    H120703   0.445   2.991   3.045
 4192TIP3    H220704   0.406   2.907   3.164
 4193TIP3   OH220705   1.090   3.147   2.519
 4193TIP3    H120706   1.047   3.236   2.524
 4193TIP3    H220707   1.011   3.089   2.534
 4194TIP3   OH220708   0.064   2.792   3.665
 4194TIP3    H120709   0.157   2.787   3.693
 4194TIP3    H220710   0.070   2.768   3.572
 4195TIP3   OH220711   0.777   2.638   3.924
 4195TIP3    H120712   0.721   2.629   3.843
 4195TIP3    H220713   0.769   2.733   3.941
 4196TIP3   OH220714   1.279   3.253   3.728
 4196TIP3    H120715   1.223   3.322   3.765
 4196TIP3    H220716   1.368   3.292   3.731
 4197TIP3   OH220717   1.779   2.458   2.558
 4197TIP3    H120718   1.740   2.436   2.471
 4197TIP3    H220719   1.811   2.548   2.539
 4198TIP3   OH220720   1.839   3.069   3.783
 4198TIP3    H120721   1.807   3.158   3.810
 4198TIP3    H220722   1.896   3.084   3.705
 4199TIP3   OH220723   1.593   3.369   2.581
 4199TIP3    H120724   1.561   3.289   2.625
 4199TIP3    H220725   1.666   3.337   2.524
 4200TIP3   OH220726   1.406   2.867   3.251
 4200TIP3    H120727   1.317   2.838   3.228
 4200TIP3    H220728   1.461   2.803   3.201
 4201TIP3   OH220729   0.615   3.271   2.918
 4201TIP3    H120730   0.635   3.365   2.905
 4201TIP3    H220731   0.545   3.255   2.852
 4202TIP3   OH220732   0.225   2.783   2.308
 4202TIP3    H120733   0.275   2.836   2.372
 4202TIP3    H220734   0.140   2.778   2.354
 4203TIP3   OH220735   0.772   3.059   2.848
 4203TIP3    H120736   0.714   3.132   2.875
 4203TIP3    H220737   0.731   2.983   2.894
 4204TIP3   OH220738   0.836   3.502   3.589
 4204TIP3    H120739   0.896   3.548   3.526
 4204TIP3    H220740   0.891   3.429   3.622
 4205TIP3   OH220741   0.647   3.540   2.773
 4205TIP3    H120742   0.554   3.549   2.804
 4205TIP3    H220743   0.686   3.614   2.823
 4206TIP3   OH220744   1.142   3.070   3.426
 4206TIP3    H120745   1.093   3.049   3.509
 4206TIP3    H220746   1.205   2.997   3.423
 4207TIP3   OH220747   1.411   3.197   2.373
 4207TIP3    H120748   1.402   3.164   2.465
 4207TIP3    H220749   1.324   3.170   2.337
 4208TIP3   OH220750   1.437   3.512   3.690
 4208TIP3    H120751   1.343   3.511   3.667
 4208TIP3    H220752   1.467   3.591   3.640
 4209TIP3   OH220753   1.833   3.596   2.401
 4209TIP3    H120754   1.879   3.663   2.349
 4209TIP3    H220755   1.763   3.650   2.444
 4210TIP3   OH220756   0.284   2.248   3.621
 4210TIP3    H120757   0.222   2.286   3.687
 4210TIP3    H220758   0.234   2.169   3.600
 4211TIP3   OH220759   1.485   3.062   2.595
 4211TIP3    H120760   1.439   2.979   2.573
 4211TIP3    H220761   1.580   3.035   2.591
 4212TIP3   OH220762   0.246   3.435   3.502
 4212TIP3    H120763   0.298   3.355   3.522
 4212TIP3    H220764   0.242   3.477   3.589
 4213TIP3   OH220765   0.820   3.320   2.227
 4213TIP3    H120766   0.803   3.266   2.149
 4213TIP3    H220767   0.769   3.273   2.296
 4214TIP3   OH220768   0.687   3.221   2.448
 4214TIP3    H120769   0.745   3.180   2.514
 4214TIP3    H220770   0.693   3.315   2.477
 4215TIP3   OH220771   0.335   2.937   2.505
 4215TIP3    H120772   0.253   2.984   2.534
 4215TIP3    H220773   0.385   3.009   2.464
 4216TIP3   OH220774   1.135   2.247   3.551
 4216TIP3    H120775   1.192   2.218   3.624
 4216TIP3    H220776   1.069   2.174   3.548
 4217TIP3   OH220777   1.213   2.115   2.669
 4217TIP3    H120778   1.210   2.179   2.593
 4217TIP3    H220779   1.246   2.176   2.739
 4218TIP3   OH220780   0.957   3.391   2.508
 4218TIP3    H120781   0.868   3.426   2.531
 4218TIP3    H220782   1.004   3.474   2.492
 4219TIP3   OH220783   0.953   2.364   2.716
 4219TIP3    H120784   0.977   2.456   2.739
 4219TIP3    H220785   0.930   2.327   2.805
 4220TIP3   OH220786   1.049   2.500   3.597
 4220TIP3    H120787   1.023   2.494   3.690
 4220TIP3    H220788   1.083   2.410   3.576
 4221TIP3   OH220789   0.970   2.045   2.759
 4221TIP3    H120790   0.966   2.075   2.852
 4221TIP3    H220791   1.055   2.085   2.728
 4222TIP3   OH220792   0.708   3.473   2.514
 4222TIP3    H120793   0.707   3.547   2.450
 4222TIP3    H220794   0.676   3.516   2.595
 4223TIP3   OH220795   0.547   2.173   2.503
 4223TIP3    H120796   0.554   2.256   2.552
 4223TIP3    H220797   0.638   2.140   2.508
 4224TIP3   OH220798   1.583   2.210   3.744
 4224TIP3    H120799   1.503   2.268   3.735
 4224TIP3    H220800   1.625   2.224   3.657
 4225TIP3   OH220801   1.497   2.637   3.114
 4225TIP3    H120802   1.415   2.584   3.105
 4225TIP3    H220803   1.555   2.578   3.169
 4226TIP3   OH220804   0.397   3.198   2.356
 4226TIP3    H120805   0.457   3.237   2.421
 4226TIP3    H220806   0.462   3.146   2.302
 4227TIP3   OH220807   0.228   2.500   2.319
 4227TIP3    H120808   0.266   2.590   2.314
 4227TIP3    H220809   0.163   2.497   2.245
 4228TIP3   OH220810   1.547   3.558   3.286
 4228TIP3    H120811   1.545   3.620   3.210
 4228TIP3    H220812   1.644   3.544   3.288
 4229TIP3   OH220813   0.316   1.974   3.164
 4229TIP3    H120814   0.306   1.959   3.067
 4229TIP3    H220815   0.299   1.883   3.199
 4230TIP3   OH220816   0.239   3.347   2.780
 4230TIP3    H120817   0.150   3.346   2.817
 4230TIP3    H220818   0.227   3.408   2.703
 4231TIP3   OH220819   0.159   3.617   3.936
 4231TIP3    H120820   0.235   3.596   3.991
 4231TIP3    H220821   0.129   3.526   3.913
 4232TIP3   OH220822   1.023   3.512   2.223
 4232TIP3    H120823   0.969   3.433   2.245
 4232TIP3    H220824   1.098   3.473   2.175
 4233TIP3   OH220825   1.467   3.428   2.225
 4233TIP3    H120826   1.465   3.346   2.280
 4233TIP3    H220827   1.549   3.418   2.174
 4234TIP3   OH220828   0.582   3.030   2.210
 4234TIP3    H120829   0.585   2.934   2.219
 4234TIP3    H220830   0.669   3.045   2.166
 4235TIP3   OH220831   0.789   2.950   3.895
 4235TIP3    H120832   0.763   3.030   3.843
 4235TIP3    H220833   0.698   2.922   3.922
 4236TIP3   OH220834   1.162   3.174   2.258
 4236TIP3    H120835   1.136   3.159   2.351
 4236TIP3    H220836   1.134   3.089   2.217
 4237TIP3   OH220837   1.353   2.982   3.686
 4237TIP3    H120838   1.449   3.001   3.693
 4237TIP3    H220839   1.321   3.070   3.715
 4238TIP3   OH220840   0.682   2.855   2.503
 4238TIP3    H120841   0.598   2.808   2.495
 4238TIP3    H220842   0.734   2.810   2.433
 4239TIP3   OH220843   0.602   2.648   3.714
 4239TIP3    H120844   0.555   2.732   3.712
 4239TIP3    H220845   0.666   2.658   3.641
 4240TIP3   OH220846   0.791   2.706   2.309
 4240TIP3    H120847   0.790   2.717   2.213
 4240TIP3    H220848   0.888   2.699   2.324
 4241TIP3   OH220849   1.726   2.891   2.213
 4241TIP3    H120850   1.703   2.862   2.122
 4241TIP3    H220851   1.706   2.988   2.212
 4242TIP3   OH220852   0.727   2.167   3.556
 4242TIP3    H120853   0.780   2.244   3.524
 4242TIP3    H220854   0.647   2.178   3.502
 4243TIP3   OH220855   0.800   2.773   3.582
 4243TIP3    H120856   0.887   2.812   3.580
 4243TIP3    H220857   0.750   2.844   3.538
 4244TIP3   OH220858   1.316   2.501   4.042
 4244TIP3    H120859   1.333   2.466   4.130
 4244TIP3    H220860   1.395   2.559   4.035
 4245TIP3   OH220861   0.398   2.497   3.934
 4245TIP3    H120862   0.375   2.484   4.027
 4245TIP3    H220863   0.487   2.532   3.941
 4246TIP3   OH220864   0.781   1.911   3.576
 4246TIP3    H120865   0.763   2.008   3.578
 4246TIP3    H220866   0.715   1.881   3.511
 4247TIP3   OH220867   1.180   2.280   3.889
 4247TIP3    H120868   1.133   2.365   3.891
 4247TIP3    H220869   1.228   2.286   3.973
 4248TIP3   OH220870   0.287   2.219   4.035
 4248TIP3    H120871   0.317   2.156   3.965
 4248TIP3    H220872   0.352   2.209   4.105
 4249TIP3   OH220873   0.745   3.724   2.399
 4249TIP3    H120874   0.809   3.785   2.441
 4249TIP3    H220875   0.764   3.742   2.305
 4250TIP3   OH220876   0.094   3.242   2.313
 4250TIP3    H120877   0.191   3.246   2.314
 4250TIP3    H220878   0.081   3.165   2.253
 4251TIP3   OH220879  -0.012   3.835   2.934
 4251TIP3    H120880  -0.005   3.771   2.862
 4251TIP3    H220881  -0.013   3.778   3.013
 4252TIP3   OH220882   0.096   3.533   3.032
 4252TIP3    H120883   0.028   3.503   3.096
 4252TIP3    H220884   0.165   3.565   3.094
 4253TIP3   OH220885   1.825   3.558   3.307
 4253TIP3    H120886   1.836   3.586   3.400
 4253TIP3    H220887   1.904   3.594   3.265
 4254TIP3   OH220888   1.795   3.565   3.597
 4254TIP3    H120889   1.751   3.486   3.558
 4254TIP3    H220890   1.829   3.531   3.681
 4255TIP3   OH220891   1.743   2.965   2.602
 4255TIP3    H120892   1.830   3.008   2.614
 4255TIP3    H220893   1.741   2.904   2.679
 4256TIP3   OH220894   1.793   2.771   2.800
 4256TIP3    H120895   1.733   2.699   2.832
 4256TIP3    H220896   1.845   2.789   2.881
 4257TIP3   OH220897   1.793   3.063   3.226
 4257TIP3    H120898   1.858   2.991   3.239
 4257TIP3    H220899   1.852   3.141   3.226
 4258TIP3   OH220900   1.645   3.349   3.519
 4258TIP3    H120901   1.583   3.396   3.578
 4258TIP3    H220902   1.589   3.327   3.443
 4259TIP3   OH220903   1.838   2.766   2.438
 4259TIP3    H120904   1.786   2.797   2.362
 4259TIP3    H220905   1.805   2.826   2.507
 4260TIP3   OH220906   1.694   2.485   2.267
 4260TIP3    H120907   1.716   2.569   2.224
 4260TIP3    H220908   1.638   2.440   2.201
 4261TIP3   OH220909   1.622   2.576   2.886
 4261TIP3    H120910   1.571   2.493   2.886
 4261TIP3    H220911   1.587   2.617   2.969
 4262TIP3   OH220912   0.127   2.893   3.275
 4262TIP3    H120913   0.104   2.847   3.192
 4262TIP3    H220914   0.200   2.835   3.308
 4263TIP3   OH220915   1.685   2.826   3.767
 4263TIP3    H120916   1.753   2.802   3.831
 4263TIP3    H220917   1.714   2.917   3.746
 4264TIP3   OH220918   1.874   2.664   3.882
 4264TIP3    H120919   1.783   2.632   3.894
 4264TIP3    H220920   1.924   2.588   3.914
 4265TIP3   OH220921   1.592   2.226   2.173
 4265TIP3    H120922   1.648   2.195   2.246
 4265TIP3    H220923   1.501   2.216   2.206
 4266TIP3   OH220924   1.484   2.424   2.708
 4266TIP3    H120925   1.523   2.334   2.717
 4266TIP3    H220926   1.567   2.475   2.710
 4267TIP3   OH220927   1.661   2.479   3.260
 4267TIP3    H120928   1.757   2.476   3.279
 4267TIP3    H220929   1.628   2.486   3.352
 4268TIP3   OH220930   1.642   2.553   3.525
 4268TIP3    H120931   1.578   2.588   3.589
 4268TIP3    H220932   1.693   2.634   3.502
 4269TIP3   OH220933   0.110   2.327   3.839
 4269TIP3    H120934   0.183   2.370   3.889
 4269TIP3    H220935   0.080   2.263   3.903
 4270TIP3   OH220936   1.632   2.193   2.733
 4270TIP3    H120937   1.638   2.124   2.802
 4270TIP3    H220938   1.605   2.139   2.657
 4271TIP3   OH220939   0.169   2.176   3.263
 4271TIP3    H120940   0.226   2.098   3.240
 4271TIP3    H220941   0.232   2.245   3.288
 4272TIP3   OH220942   0.030   2.516   3.275
 4272TIP3    H120943   0.116   2.522   3.228
 4272TIP3    H220944  -0.018   2.595   3.243
 4273TIP3   OH220945   1.755   2.115   3.931
 4273TIP3    H120946   1.708   2.195   3.906
 4273TIP3    H220947   1.787   2.084   3.846
 4274TIP3   OH220948   1.789   2.100   2.397
 4274TIP3    H120949   1.811   2.053   2.313
 4274TIP3    H220950   1.871   2.149   2.414
 4275TIP3   OH220951   0.009   2.118   2.642
 4275TIP3    H120952   0.038   2.158   2.726
 4275TIP3    H220953   0.046   2.184   2.578
 4276TIP3   OH220954   1.502   3.634   2.843
 4276TIP3    H120955   1.586   3.608   2.801
 4276TIP3    H220956   1.533   3.681   2.923
 4277TIP3   OH220957   0.087   1.974   3.525
 4277TIP3    H120958   0.031   2.039   3.573
 4277TIP3    H220959   0.081   2.011   3.435
 4278TIP3   OH220960   0.130   3.338   3.918
 4278TIP3    H120961   0.063   3.286   3.868
 4278TIP3    H220962   0.197   3.268   3.929
 4279TIP3   OH220963   0.571   3.493   3.632
 4279TIP3    H120964   0.539   3.560   3.567
 4279TIP3    H220965   0.669   3.497   3.612
 4280TIP3   OH220966   0.306   3.783   3.601
 4280TIP3    H120967   0.210   3.792   3.578
 4280TIP3    H220968   0.312   3.841   3.679
 4281TIP3   OH220969   0.515   3.695   3.452
 4281TIP3    H120970   0.439   3.725   3.506
 4281TIP3    H220971   0.505   3.746   3.370
 4282TIP3   OH220972   0.963   3.641   3.391
 4282TIP3    H120973   0.893   3.690   3.342
 4282TIP3    H220974   1.006   3.714   3.439
 4283TIP3   OH220975   1.200   3.540   3.527
 4283TIP3    H120976   1.125   3.519   3.468
 4283TIP3    H220977   1.238   3.616   3.481
 4284TIP3   OH220978   1.491   3.707   3.503
 4284TIP3    H120979   1.489   3.796   3.465
 4284TIP3    H220980   1.504   3.653   3.421
 4285TIP3   OH220981   0.256   3.603   3.265
 4285TIP3    H120982   0.275   3.575   3.357
 4285TIP3    H220983   0.326   3.551   3.217
 4286TIP3   OH220984   0.432   3.461   3.133
 4286TIP3    H120985   0.408   3.367   3.152
 4286TIP3    H220986   0.517   3.464   3.183
 4287TIP3   OH220987   0.666   3.477   3.263
 4287TIP3    H120988   0.721   3.398   3.271
 4287TIP3    H220989   0.702   3.535   3.333
 4288TIP3   OH220990   0.980   2.053   3.034
 4288TIP3    H120991   0.941   1.982   3.090
 4288TIP3    H220992   1.076   2.048   3.053
 4289TIP3   OH220993   1.554   1.906   3.126
 4289TIP3    H120994   1.643   1.936   3.097
 4289TIP3    H220995   1.499   1.969   3.077
 4290TIP3   OH220996   1.733   1.991   2.940
 4290TIP3    H120997   1.797   1.927   2.900
 4290TIP3    H220998   1.794   2.068   2.959
 4291TIP3   OH220999   0.319   1.932   2.897
 4291TIP3    H121000   0.223   1.930   2.880
 4291TIP3    H221001   0.345   1.837   2.890
 4292TIP3   OH221002   0.173   1.922   2.491
 4292TIP3    H121003   0.201   1.985   2.422
 4292TIP3    H221004   0.100   1.970   2.532
 4293TIP3   OH221005   0.691   1.889   2.866
 4293TIP3    H121006   0.785   1.900   2.849
 4293TIP3    H221007   0.673   1.958   2.930
 4294TIP3   OH221008   1.261   1.978   3.031
 4294TIP3    H121009   1.270   1.973   2.934
 4294TIP3    H221010   1.230   1.888   3.054
 4295TIP3   OH221011   1.436   1.973   2.651
 4295TIP3    H121012   1.350   2.019   2.645
 4295TIP3    H221013   1.405   1.887   2.685
 4296TIP3   OH221014   0.186   3.522   2.580
 4296TIP3    H121015   0.095   3.509   2.547
 4296TIP3    H221016   0.197   3.618   2.560
 4297TIP3   OH221017   0.276   2.139   2.343
 4297TIP3    H121018   0.356   2.094   2.310
 4297TIP3    H221019   0.310   2.180   2.425
 4298TIP3   OH221020   0.840   2.158   2.548
 4298TIP3    H121021   0.869   2.104   2.625
 4298TIP3    H221022   0.869   2.245   2.581
 4299TIP3   OH221023   1.075   3.704   2.436
 4299TIP3    H121024   1.165   3.667   2.417
 4299TIP3    H221025   1.027   3.668   2.360
 4300TIP3   OH221026   1.734   3.553   2.716
 4300TIP3    H121027   1.682   3.487   2.665
 4300TIP3    H221028   1.748   3.620   2.646
 4301TIP3   OH221029   0.318   2.008   3.867
 4301TIP3    H121030   0.230   1.977   3.843
 4301TIP3    H221031   0.374   1.960   3.805
 4302TIP3   OH221032   0.296   3.594   2.290
 4302TIP3    H121033   0.261   3.579   2.379
 4302TIP3    H221034   0.384   3.556   2.299
 4303TIP3   OH221035   3.114   2.881   2.902
 4303TIP3    H121036   3.125   2.953   2.967
 4303TIP3    H221037   3.040   2.913   2.849
 4304TIP3   OH221038   2.986   2.730   3.202
 4304TIP3    H121039   2.987   2.709   3.298
 4304TIP3    H221040   2.907   2.682   3.170
 4305TIP3   OH221041   2.189   2.745   3.383
 4305TIP3    H121042   2.198   2.664   3.437
 4305TIP3    H221043   2.282   2.770   3.365
 4306TIP3   OH221044   3.304   3.072   3.084
 4306TIP3    H121045   3.305   3.002   3.153
 4306TIP3    H221046   3.323   3.151   3.139
 4307TIP3   OH221047   2.313   3.223   3.240
 4307TIP3    H121048   2.265   3.152   3.192
 4307TIP3    H221049   2.406   3.197   3.221
 4308TIP3   OH221050   1.981   2.515   2.782
 4308TIP3    H121051   1.955   2.608   2.786
 4308TIP3    H221052   1.896   2.473   2.764
 4309TIP3   OH221053   1.989   2.760   3.019
 4309TIP3    H121054   2.030   2.672   3.036
 4309TIP3    H221055   2.066   2.813   2.993
 4310TIP3   OH221056   3.013   3.581   3.058
 4310TIP3    H121057   3.087   3.542   3.007
 4310TIP3    H221058   3.018   3.529   3.139
 4311TIP3   OH221059   2.779   3.082   3.314
 4311TIP3    H121060   2.829   3.052   3.237
 4311TIP3    H221061   2.852   3.096   3.378
 4312TIP3   OH221062   3.635   2.171   3.315
 4312TIP3    H121063   3.654   2.208   3.403
 4312TIP3    H221064   3.718   2.190   3.270
 4313TIP3   OH221065   3.141   2.450   3.335
 4313TIP3    H121066   3.160   2.354   3.334
 4313TIP3    H221067   3.137   2.465   3.238
 4314TIP3   OH221068   2.457   2.240   3.019
 4314TIP3    H121069   2.459   2.334   2.989
 4314TIP3    H221070   2.394   2.202   2.955
 4315TIP3   OH221071   3.184   2.286   2.874
 4315TIP3    H121072   3.230   2.264   2.959
 4315TIP3    H221073   3.229   2.369   2.852
 4316TIP3   OH221074   2.103   2.522   3.111
 4316TIP3    H121075   2.171   2.482   3.168
 4316TIP3    H221076   2.128   2.481   3.025
 4317TIP3   OH221077   2.578   2.685   3.083
 4317TIP3    H121078   2.667   2.641   3.087
 4317TIP3    H221079   2.528   2.609   3.046
 4318TIP3   OH221080   3.691   2.304   3.574
 4318TIP3    H121081   3.648   2.377   3.525
 4318TIP3    H221082   3.660   2.325   3.663
 4319TIP3   OH221083   2.337   2.166   3.432
 4319TIP3    H121084   2.296   2.229   3.371
 4319TIP3    H221085   2.275   2.169   3.507
 4320TIP3   OH221086   3.015   3.139   2.766
 4320TIP3    H121087   2.999   3.150   2.670
 4320TIP3    H221088   2.981   3.225   2.799
 4321TIP3   OH221089   2.554   2.973   3.414
 4321TIP3    H121090   2.501   3.040   3.463
 4321TIP3    H221091   2.624   3.026   3.372
 4322TIP3   OH221092   3.359   2.267   3.081
 4322TIP3    H121093   3.358   2.202   3.153
 4322TIP3    H221094   3.454   2.286   3.077
 4323TIP3   OH221095   2.311   2.369   3.235
 4323TIP3    H121096   2.373   2.432   3.278
 4323TIP3    H221097   2.367   2.331   3.164
 4324TIP3   OH221098   2.425   3.161   3.553
 4324TIP3    H121099   2.405   3.250   3.521
 4324TIP3    H221100   2.335   3.135   3.583
 4325TIP3   OH221101   2.009   3.051   2.580
 4325TIP3    H121102   2.000   3.099   2.494
 4325TIP3    H221103   2.017   3.128   2.641
 4326TIP3   OH221104   3.344   3.278   3.272
 4326TIP3    H121105   3.246   3.281   3.272
 4326TIP3    H221106   3.364   3.373   3.263
 4327TIP3   OH221107   3.403   2.214   3.464
 4327TIP3    H121108   3.320   2.212   3.414
 4327TIP3    H221109   3.468   2.214   3.391
 4328TIP3   OH221110   2.671   1.899   3.181
 4328TIP3    H121111   2.651   1.804   3.175
 4328TIP3    H221112   2.585   1.934   3.217
 4329TIP3   OH221113   3.231   3.447   2.937
 4329TIP3    H121114   3.262   3.367   2.887
 4329TIP3    H221115   3.307   3.509   2.932
 4330TIP3   OH221116   3.333   3.231   2.802
 4330TIP3    H121117   3.313   3.170   2.727
 4330TIP3    H221118   3.328   3.169   2.878
 4331TIP3   OH221119   3.473   3.107   3.682
 4331TIP3    H121120   3.492   3.025   3.631
 4331TIP3    H221121   3.495   3.178   3.617
 4332TIP3   OH221122   2.928   2.797   2.609
 4332TIP3    H121123   2.895   2.889   2.611
 4332TIP3    H221124   3.019   2.806   2.574
 4333TIP3   OH221125   2.956   2.704   2.321
 4333TIP3    H121126   3.014   2.752   2.383
 4333TIP3    H221127   2.959   2.614   2.358
 4334TIP3   OH221128   3.660   2.734   3.431
 4334TIP3    H121129   3.584   2.791   3.455
 4334TIP3    H221130   3.709   2.795   3.373
 4335TIP3   OH221131   3.317   2.828   2.734
 4335TIP3    H121132   3.241   2.849   2.795
 4335TIP3    H221133   3.371   2.773   2.795
 4336TIP3   OH221134   3.268   2.696   3.717
 4336TIP3    H121135   3.299   2.787   3.701
 4336TIP3    H221136   3.174   2.707   3.698
 4337TIP3   OH221137   2.475   2.837   2.894
 4337TIP3    H121138   2.441   2.789   2.816
 4337TIP3    H221139   2.524   2.769   2.944
 4338TIP3   OH221140   2.578   3.202   3.180
 4338TIP3    H121141   2.602   3.199   3.086
 4338TIP3    H221142   2.658   3.167   3.226
 4339TIP3   OH221143   2.444   2.766   3.297
 4339TIP3    H121144   2.488   2.750   3.210
 4339TIP3    H221145   2.503   2.832   3.339
 4340TIP3   OH221146   3.083   3.307   3.338
 4340TIP3    H121147   3.077   3.380   3.401
 4340TIP3    H221148   3.065   3.228   3.395
 4341TIP3   OH221149   2.573   3.202   3.780
 4341TIP3    H121150   2.510   3.243   3.843
 4341TIP3    H221151   2.516   3.186   3.701
 4342TIP3   OH221152   3.182   2.772   2.512
 4342TIP3    H121153   3.235   2.791   2.594
 4342TIP3    H221154   3.242   2.811   2.442
 4343TIP3   OH221155   2.276   2.767   3.704
 4343TIP3    H121156   2.284   2.840   3.768
 4343TIP3    H221157   2.185   2.782   3.675
 4344TIP3   OH221158   2.925   3.404   2.830
 4344TIP3    H121159   2.932   3.423   2.925
 4344TIP3    H221160   2.906   3.493   2.792
 4345TIP3   OH221161   2.343   3.349   3.831
 4345TIP3    H121162   2.389   3.401   3.761
 4345TIP3    H221163   2.276   3.300   3.780
 4346TIP3   OH221164   3.571   1.898   2.536
 4346TIP3    H121165   3.482   1.923   2.572
 4346TIP3    H221166   3.598   1.982   2.492
 4347TIP3   OH221167   2.288   2.744   2.717
 4347TIP3    H121168   2.297   2.831   2.675
 4347TIP3    H221169   2.239   2.695   2.650
 4348TIP3   OH221170   3.663   3.370   2.331
 4348TIP3    H121171   3.682   3.463   2.355
 4348TIP3    H221172   3.751   3.331   2.353
 4349TIP3   OH221173   1.974   3.040   3.550
 4349TIP3    H121174   1.900   3.038   3.488
 4349TIP3    H221175   1.992   2.945   3.560
 4350TIP3   OH221176   1.940   3.305   3.263
 4350TIP3    H121177   2.022   3.342   3.301
 4350TIP3    H221178   1.874   3.366   3.301
 4351TIP3   OH221179   3.732   3.360   3.805
 4351TIP3    H121180   3.713   3.265   3.820
 4351TIP3    H221181   3.649   3.403   3.836
 4352TIP3   OH221182   2.808   3.312   3.696
 4352TIP3    H121183   2.827   3.390   3.752
 4352TIP3    H221184   2.722   3.280   3.733
 4353TIP3   OH221185   2.913   3.655   2.707
 4353TIP3    H121186   2.925   3.681   2.612
 4353TIP3    H221187   2.900   3.743   2.747
 4354TIP3   OH221188   2.249   3.529   2.884
 4354TIP3    H121189   2.283   3.498   2.971
 4354TIP3    H221190   2.153   3.518   2.896
 4355TIP3   OH221191   3.208   3.600   2.367
 4355TIP3    H121192   3.259   3.538   2.310
 4355TIP3    H221193   3.227   3.563   2.454
 4356TIP3   OH221194   3.169   3.576   2.660
 4356TIP3    H121195   3.077   3.602   2.682
 4356TIP3    H221196   3.174   3.491   2.707
 4357TIP3   OH221197   2.186   3.143   3.677
 4357TIP3    H121198   2.171   3.104   3.765
 4357TIP3    H221199   2.107   3.112   3.628
 4358TIP3   OH221200   2.430   1.991   3.262
 4358TIP3    H121201   2.375   2.041   3.200
 4358TIP3    H221202   2.421   2.047   3.343
 4359TIP3   OH221203   2.914   1.927   3.611
 4359TIP3    H121204   2.931   1.876   3.692
 4359TIP3    H221205   2.823   1.958   3.628
 4360TIP3   OH221206   3.186   2.397   3.643
 4360TIP3    H121207   3.190   2.458   3.718
 4360TIP3    H221208   3.243   2.442   3.578
 4361TIP3   OH221209   3.346   2.884   2.336
 4361TIP3    H121210   3.332   2.890   2.239
 4361TIP3    H221211   3.440   2.911   2.343
 4362TIP3   OH221212   2.891   2.256   2.351
 4362TIP3    H121213   2.866   2.243   2.445
 4362TIP3    H221214   2.828   2.194   2.312
 4363TIP3   OH221215   2.463   2.527   3.408
 4363TIP3    H121216   2.379   2.511   3.454
 4363TIP3    H221217   2.458   2.621   3.380
 4364TIP3   OH221218   2.466   2.491   2.936
 4364TIP3    H121219   2.377   2.493   2.896
 4364TIP3    H221220   2.519   2.488   2.854
 4365TIP3   OH221221   3.023   2.599   2.765
 4365TIP3    H121222   2.976   2.669   2.714
 4365TIP3    H221223   3.092   2.572   2.701
 4366TIP3   OH221224   2.949   2.544   3.923
 4366TIP3    H121225   2.879   2.474   3.931
 4366TIP3    H221226   2.962   2.544   3.827
 4367TIP3   OH221227   3.137   2.520   3.043
 4367TIP3    H121228   3.106   2.609   3.017
 4367TIP3    H221229   3.112   2.471   2.964
 4368TIP3   OH221230   2.215   2.490   3.519
 4368TIP3    H121231   2.237   2.528   3.605
 4368TIP3    H221232   2.186   2.400   3.543
 4369TIP3   OH221233   2.524   2.290   2.266
 4369TIP3    H121234   2.476   2.243   2.337
 4369TIP3    H221235   2.454   2.339   2.218
 4370TIP3   OH221236   1.905   2.193   2.976
 4370TIP3    H121237   1.983   2.188   3.033
 4370TIP3    H221238   1.936   2.251   2.905
 4371TIP3   OH221239   1.978   2.285   2.502
 4371TIP3    H121240   2.038   2.334   2.443
 4371TIP3    H221241   1.918   2.357   2.528
 4372TIP3   OH221242   3.040   2.688   3.466
 4372TIP3    H121243   3.095   2.612   3.440
 4372TIP3    H221244   2.962   2.640   3.501
 4373TIP3   OH221245   2.749   2.230   2.969
 4373TIP3    H121246   2.652   2.218   2.977
 4373TIP3    H221247   2.777   2.219   3.063
 4374TIP3   OH221248   2.197   2.404   2.890
 4374TIP3    H121249   2.134   2.440   2.824
 4374TIP3    H221250   2.219   2.316   2.851
 4375TIP3   OH221251   2.552   2.460   2.672
 4375TIP3    H121252   2.647   2.454   2.652
 4375TIP3    H221253   2.514   2.500   2.592
 4376TIP3   OH221254   3.169   2.169   3.311
 4376TIP3    H121255   3.083   2.180   3.356
 4376TIP3    H221256   3.142   2.117   3.234
 4377TIP3   OH221257   2.404   2.582   2.359
 4377TIP3    H121258   2.391   2.520   2.285
 4377TIP3    H221259   2.489   2.622   2.331
 4378TIP3   OH221260   3.452   3.754   3.962
 4378TIP3    H121261   3.464   3.806   3.880
 4378TIP3    H221262   3.541   3.717   3.966
 4379TIP3   OH221263   2.216   2.972   3.899
 4379TIP3    H121264   2.262   3.038   3.952
 4379TIP3    H221265   2.129   2.969   3.944
 4380TIP3   OH221266   2.798   2.540   3.127
 4380TIP3    H121267   2.853   2.474   3.083
 4380TIP3    H221268   2.802   2.513   3.220
 4381TIP3   OH221269   2.283   2.155   2.831
 4381TIP3    H121270   2.239   2.074   2.865
 4381TIP3    H221271   2.343   2.116   2.766
 4382TIP3   OH221272   2.642   2.354   3.339
 4382TIP3    H121273   2.576   2.420   3.371
 4382TIP3    H221274   2.720   2.381   3.389
 4383TIP3   OH221275   2.761   3.018   2.611
 4383TIP3    H121276   2.685   2.969   2.572
 4383TIP3    H221277   2.724   3.045   2.698
 4384TIP3   OH221278   3.467   2.908   3.504
 4384TIP3    H121279   3.509   2.963   3.433
 4384TIP3    H221280   3.373   2.912   3.475
 4385TIP3   OH221281   3.142   2.288   2.446
 4385TIP3    H121282   3.056   2.308   2.404
 4385TIP3    H221283   3.174   2.377   2.471
 4386TIP3   OH221284   2.860   3.043   3.683
 4386TIP3    H121285   2.844   3.009   3.771
 4386TIP3    H221286   2.835   3.137   3.691
 4387TIP3   OH221287   3.212   2.516   2.555
 4387TIP3    H121288   3.294   2.493   2.604
 4387TIP3    H221289   3.232   2.602   2.515
 4388TIP3   OH221290   2.260   2.956   3.128
 4388TIP3    H121291   2.303   2.920   3.048
 4388TIP3    H221292   2.296   2.903   3.200
 4389TIP3   OH221293   2.952   3.155   2.492
 4389TIP3    H121294   2.901   3.239   2.497
 4389TIP3    H221295   2.885   3.091   2.525
 4390TIP3   OH221296   1.978   2.775   3.658
 4390TIP3    H121297   1.937   2.748   3.744
 4390TIP3    H221298   1.914   2.736   3.594
 4391TIP3   OH221299   2.701   2.710   3.836
 4391TIP3    H121300   2.620   2.686   3.786
 4391TIP3    H221301   2.757   2.634   3.819
 4392TIP3   OH221302   3.143   3.263   3.745
 4392TIP3    H121303   3.092   3.302   3.672
 4392TIP3    H221304   3.116   3.321   3.819
 4393TIP3   OH221305   3.703   2.473   2.552
 4393TIP3    H121306   3.676   2.482   2.458
 4393TIP3    H221307   3.733   2.563   2.573
 4394TIP3   OH221308   3.715   3.084   3.817
 4394TIP3    H121309   3.620   3.085   3.793
 4394TIP3    H221310   3.755   3.080   3.728
 4395TIP3   OH221311   3.493   3.407   2.554
 4395TIP3    H121312   3.460   3.339   2.616
 4395TIP3    H221313   3.549   3.359   2.491
 4396TIP3   OH221314   3.248   2.857   3.264
 4396TIP3    H121315   3.161   2.820   3.244
 4396TIP3    H221316   3.306   2.788   3.225
 4397TIP3   OH221317   2.487   3.279   2.903
 4397TIP3    H121318   2.505   3.374   2.893
 4397TIP3    H221319   2.407   3.271   2.851
 4398TIP3   OH221320   2.176   2.820   2.339
 4398TIP3    H121321   2.233   2.860   2.408
 4398TIP3    H221322   2.088   2.850   2.367
 4399TIP3   OH221323   2.634   3.059   2.844
 4399TIP3    H121324   2.572   3.130   2.870
 4399TIP3    H221325   2.592   2.979   2.881
 4400TIP3   OH221326   2.696   3.507   3.524
 4400TIP3    H121327   2.769   3.570   3.513
 4400TIP3    H221328   2.742   3.434   3.570
 4401TIP3   OH221329   2.510   3.552   2.782
 4401TIP3    H121330   2.417   3.548   2.811
 4401TIP3    H221331   2.544   3.626   2.837
 4402TIP3   OH221332   3.012   3.079   3.461
 4402TIP3    H121333   2.971   3.060   3.548
 4402TIP3    H221334   3.067   3.000   3.446
 4403TIP3   OH221335   3.291   3.200   2.366
 4403TIP3    H121336   3.285   3.167   2.459
 4403TIP3    H221337   3.210   3.159   2.330
 4404TIP3   OH221338   3.369   3.521   3.661
 4404TIP3    H121339   3.280   3.485   3.644
 4404TIP3    H221340   3.366   3.606   3.611
 4405TIP3   OH221341   3.717   3.622   2.388
 4405TIP3    H121342   3.731   3.692   2.322
 4405TIP3    H221343   3.651   3.665   2.446
 4406TIP3   OH221344   2.135   2.239   3.638
 4406TIP3    H121345   2.049   2.252   3.596
 4406TIP3    H221346   2.123   2.154   3.683
 4407TIP3   OH221347   3.356   3.065   2.585
 4407TIP3    H121348   3.342   2.970   2.598
 4407TIP3    H221349   3.453   3.071   2.578
 4408TIP3   OH221350   2.103   3.419   3.476
 4408TIP3    H121351   2.167   3.347   3.484
 4408TIP3    H221352   2.124   3.474   3.553
 4409TIP3   OH221353   2.691   3.330   2.225
 4409TIP3    H121354   2.677   3.267   2.152
 4409TIP3    H221355   2.634   3.291   2.296
 4410TIP3   OH221356   2.565   3.242   2.461
 4410TIP3    H121357   2.635   3.207   2.518
 4410TIP3    H221358   2.562   3.336   2.490
 4411TIP3   OH221359   2.274   2.974   2.536
 4411TIP3    H121360   2.183   2.992   2.570
 4411TIP3    H221361   2.289   3.057   2.487
 4412TIP3   OH221362   2.971   2.238   3.546
 4412TIP3    H121363   3.060   2.266   3.574
 4412TIP3    H221364   2.956   2.156   3.595
 4413TIP3   OH221365   3.077   2.157   2.665
 4413TIP3    H121366   3.113   2.209   2.590
 4413TIP3    H221367   3.129   2.190   2.741
 4414TIP3   OH221368   2.834   3.401   2.515
 4414TIP3    H121369   2.750   3.445   2.542
 4414TIP3    H221370   2.892   3.478   2.518
 4415TIP3   OH221371   2.822   2.382   2.741
 4415TIP3    H121372   2.875   2.461   2.760
 4415TIP3    H221373   2.813   2.336   2.826
 4416TIP3   OH221374   2.891   2.499   3.594
 4416TIP3    H121375   2.812   2.453   3.624
 4416TIP3    H221376   2.945   2.420   3.573
 4417TIP3   OH221377   2.872   2.045   2.805
 4417TIP3    H121378   2.836   2.107   2.871
 4417TIP3    H221379   2.943   2.101   2.764
 4418TIP3   OH221380   2.571   3.495   2.524
 4418TIP3    H121381   2.577   3.576   2.468
 4418TIP3    H221382   2.542   3.534   2.610
 4419TIP3   OH221383   2.440   2.174   2.506
 4419TIP3    H121384   2.435   2.248   2.567
 4419TIP3    H221385   2.532   2.143   2.521
 4420TIP3   OH221386   3.438   2.316   3.759
 4420TIP3    H121387   3.346   2.315   3.729
 4420TIP3    H221388   3.478   2.265   3.688
 4421TIP3   OH221389   3.363   2.646   3.126
 4421TIP3    H121390   3.290   2.584   3.110
 4421TIP3    H221391   3.428   2.586   3.172
 4422TIP3   OH221392   2.278   3.194   2.379
 4422TIP3    H121393   2.351   3.240   2.426
 4422TIP3    H221394   2.325   3.149   2.306
 4423TIP3   OH221395   2.070   2.511   2.323
 4423TIP3    H121396   2.144   2.570   2.347
 4423TIP3    H221397   2.015   2.569   2.267
 4424TIP3   OH221398   3.407   3.562   3.297
 4424TIP3    H121399   3.424   3.616   3.217
 4424TIP3    H221400   3.500   3.540   3.321
 4425TIP3   OH221401   2.150   1.970   3.175
 4425TIP3    H121402   2.167   1.947   3.081
 4425TIP3    H221403   2.161   1.881   3.216
 4426TIP3   OH221404   2.030   3.283   2.714
 4426TIP3    H121405   1.990   3.314   2.796
 4426TIP3    H221406   2.049   3.368   2.668
 4427TIP3   OH221407   1.965   3.634   3.942
 4427TIP3    H121408   1.972   3.688   4.025
 4427TIP3    H221409   1.880   3.591   3.962
 4428TIP3   OH221410   2.903   3.518   2.219
 4428TIP3    H121411   2.843   3.441   2.231
 4428TIP3    H221412   2.978   3.479   2.169
 4429TIP3   OH221413   3.106   3.418   3.952
 4429TIP3    H121414   3.074   3.411   4.044
 4429TIP3    H221415   3.192   3.463   3.963
 4430TIP3   OH221416   3.349   3.428   2.222
 4430TIP3    H121417   3.355   3.349   2.281
 4430TIP3    H221418   3.434   3.424   2.173
 4431TIP3   OH221419   1.969   2.958   4.030
 4431TIP3    H121420   1.877   2.922   4.027
 4431TIP3    H221421   1.954   3.042   3.984
 4432TIP3   OH221422   2.447   3.025   2.215
 4432TIP3    H121423   2.498   3.020   2.298
 4432TIP3    H221424   2.517   3.003   2.150
 4433TIP3   OH221425   2.954   3.193   2.165
 4433TIP3    H121426   2.915   3.188   2.253
 4433TIP3    H221427   2.984   3.100   2.156
 4434TIP3   OH221428   3.213   2.991   3.722
 4434TIP3    H121429   3.296   3.042   3.721
 4434TIP3    H221430   3.153   3.067   3.734
 4435TIP3   OH221431   2.566   2.862   2.480
 4435TIP3    H121432   2.479   2.818   2.476
 4435TIP3    H221433   2.618   2.802   2.423
 4436TIP3   OH221434   2.488   2.615   3.689
 4436TIP3    H121435   2.412   2.676   3.700
 4436TIP3    H221436   2.534   2.661   3.616
 4437TIP3   OH221437   2.640   2.697   2.283
 4437TIP3    H121438   2.643   2.707   2.186
 4437TIP3    H221439   2.735   2.689   2.302
 4438TIP3   OH221440   3.611   2.905   2.217
 4438TIP3    H121441   3.590   2.863   2.130
 4438TIP3    H221442   3.582   2.999   2.202
 4439TIP3   OH221443   2.523   2.366   3.787
 4439TIP3    H121444   2.536   2.301   3.714
 4439TIP3    H221445   2.513   2.450   3.738
 4440TIP3   OH221446   2.573   2.214   3.579
 4440TIP3    H121447   2.615   2.237   3.494
 4440TIP3    H221448   2.502   2.157   3.546
 4441TIP3   OH221449   2.682   2.770   3.551
 4441TIP3    H121450   2.771   2.801   3.574
 4441TIP3    H221451   2.636   2.850   3.520
 4442TIP3   OH221452   2.645   1.952   3.506
 4442TIP3    H121453   2.637   1.966   3.603
 4442TIP3    H221454   2.563   1.903   3.485
 4443TIP3   OH221455   2.766   2.360   3.913
 4443TIP3    H121456   2.787   2.297   3.986
 4443TIP3    H221457   2.680   2.330   3.880
 4444TIP3   OH221458   2.700   1.947   3.778
 4444TIP3    H121459   2.720   1.951   3.874
 4444TIP3    H221460   2.657   1.860   3.772
 4445TIP3   OH221461   2.642   3.730   2.417
 4445TIP3    H121462   2.712   3.784   2.458
 4445TIP3    H221463   2.594   3.796   2.367
 4446TIP3   OH221464   2.004   3.188   2.350
 4446TIP3    H121465   2.101   3.195   2.340
 4446TIP3    H221466   1.978   3.141   2.267
 4447TIP3   OH221467   1.888   3.710   2.872
 4447TIP3    H121468   1.827   3.650   2.824
 4447TIP3    H221469   1.926   3.645   2.935
 4448TIP3   OH221470   1.986   3.526   3.040
 4448TIP3    H121471   1.916   3.475   3.084
 4448TIP3    H221472   2.048   3.540   3.115
 4449TIP3   OH221473   3.675   3.559   3.311
 4449TIP3    H121474   3.740   3.592   3.375
 4449TIP3    H221475   3.710   3.588   3.226
 4450TIP3   OH221476   3.701   3.584   3.626
 4450TIP3    H121477   3.647   3.520   3.575
 4450TIP3    H221478   3.728   3.525   3.700
 4451TIP3   OH221479   3.556   3.169   4.109
 4451TIP3    H121480   3.548   3.138   4.202
 4451TIP3    H221481   3.476   3.221   4.098
 4452TIP3   OH221482   3.624   3.015   2.583
 4452TIP3    H121483   3.708   3.051   2.619
 4452TIP3    H221484   3.607   2.942   2.644
 4453TIP3   OH221485   3.697   2.774   2.814
 4453TIP3    H121486   3.608   2.745   2.847
 4453TIP3    H221487   3.742   2.783   2.900
 4454TIP3   OH221488   3.608   3.041   3.321
 4454TIP3    H121489   3.687   2.997   3.282
 4454TIP3    H221490   3.640   3.132   3.325
 4455TIP3   OH221491   3.522   3.350   3.525
 4455TIP3    H121492   3.461   3.408   3.574
 4455TIP3    H221493   3.468   3.321   3.449
 4456TIP3   OH221494   3.740   2.792   2.453
 4456TIP3    H121495   3.673   2.782   2.383
 4456TIP3    H221496   3.719   2.881   2.486
 4457TIP3   OH221497   3.666   2.506   2.280
 4457TIP3    H121498   3.624   2.574   2.225
 4457TIP3    H221499   3.599   2.434   2.277
 4458TIP3   OH221500   3.470   2.646   2.873
 4458TIP3    H121501   3.460   2.552   2.854
 4458TIP3    H221502   3.442   2.650   2.968
 4459TIP3   OH221503   1.982   2.869   3.267
 4459TIP3    H121504   1.973   2.829   3.177
 4459TIP3    H221505   2.072   2.839   3.292
 4460TIP3   OH221506   3.502   2.288   2.260
 4460TIP3    H121507   3.549   2.214   2.303
 4460TIP3    H221508   3.415   2.248   2.239
 4461TIP3   OH221509   3.420   2.419   2.709
 4461TIP3    H121510   3.436   2.323   2.722
 4461TIP3    H221511   3.505   2.445   2.671
 4462TIP3   OH221512   3.549   2.478   3.233
 4462TIP3    H121513   3.646   2.486   3.238
 4462TIP3    H221514   3.533   2.484   3.329
 4463TIP3   OH221515   3.509   2.525   3.504
 4463TIP3    H121516   3.426   2.570   3.523
 4463TIP3    H221517   3.572   2.600   3.491
 4464TIP3   OH221518   3.494   2.151   2.732
 4464TIP3    H121519   3.540   2.119   2.812
 4464TIP3    H221520   3.435   2.075   2.713
 4465TIP3   OH221521   2.054   2.203   3.263
 4465TIP3    H121522   2.079   2.113   3.234
 4465TIP3    H221523   2.134   2.255   3.246
 4466TIP3   OH221524   1.921   2.494   3.307
 4466TIP3    H121525   1.975   2.466   3.231
 4466TIP3    H221526   1.967   2.575   3.330
 4467TIP3   OH221527   3.678   2.117   2.400
 4467TIP3    H121528   3.718   2.089   2.315
 4467TIP3    H221529   3.757   2.145   2.449
 4468TIP3   OH221530   1.899   2.088   2.670
 4468TIP3    H121531   1.815   2.132   2.688
 4468TIP3    H221532   1.939   2.150   2.606
 4469TIP3   OH221533   3.416   3.637   2.935
 4469TIP3    H121534   3.468   3.620   2.853
 4469TIP3    H221535   3.476   3.696   2.982
 4470TIP3   OH221536   1.885   1.992   3.525
 4470TIP3    H121537   1.821   1.922   3.546
 4470TIP3    H221538   1.835   2.053   3.468
 4471TIP3   OH221539   2.040   3.255   3.943
 4471TIP3    H121540   1.945   3.280   3.951
 4471TIP3    H221541   2.083   3.342   3.942
 4472TIP3   OH221542   2.445   3.473   3.621
 4472TIP3    H121543   2.416   3.560   3.586
 4472TIP3    H221544   2.536   3.471   3.583
 4473TIP3   OH221545   2.860   3.537   3.831
 4473TIP3    H121546   2.856   3.515   3.926
 4473TIP3    H221547   2.941   3.592   3.826
 4474TIP3   OH221548   3.064   3.730   3.764
 4474TIP3    H121549   3.113   3.665   3.712
 4474TIP3    H221550   3.108   3.720   3.850
 4475TIP3   OH221551   3.620   1.917   3.681
 4475TIP3    H121552   3.528   1.914   3.652
 4475TIP3    H221553   3.648   1.823   3.675
 4476TIP3   OH221554   2.162   3.750   3.599
 4476TIP3    H121555   2.087   3.793   3.551
 4476TIP3    H221556   2.156   3.796   3.685
 4477TIP3   OH221557   2.396   3.693   3.485
 4477TIP3    H121558   2.308   3.721   3.523
 4477TIP3    H221559   2.406   3.753   3.407
 4478TIP3   OH221560   2.900   3.665   3.386
 4478TIP3    H121561   2.829   3.695   3.327
 4478TIP3    H221562   2.905   3.742   3.446
 4479TIP3   OH221563   3.113   3.537   3.519
 4479TIP3    H121564   3.043   3.581   3.466
 4479TIP3    H221565   3.187   3.595   3.496
 4480TIP3   OH221566   3.308   3.729   3.481
 4480TIP3    H121567   3.325   3.822   3.456
 4480TIP3    H221568   3.345   3.685   3.401
 4481TIP3   OH221569   2.137   3.570   3.255
 4481TIP3    H121570   2.122   3.520   3.339
 4481TIP3    H221571   2.228   3.541   3.232
 4482TIP3   OH221572   2.361   3.469   3.128
 4482TIP3    H121573   2.346   3.377   3.158
 4482TIP3    H221574   2.447   3.486   3.173
 4483TIP3   OH221575   2.584   3.491   3.259
 4483TIP3    H121576   2.620   3.402   3.244
 4483TIP3    H221577   2.612   3.507   3.351
 4484TIP3   OH221578   2.863   2.135   3.210
 4484TIP3    H121579   2.782   2.113   3.259
 4484TIP3    H221580   2.887   2.050   3.169
 4485TIP3   OH221581   3.418   1.899   3.116
 4485TIP3    H121582   3.486   1.951   3.066
 4485TIP3    H221583   3.334   1.925   3.071
 4486TIP3   OH221584   3.611   1.996   2.945
 4486TIP3    H121585   3.676   1.933   2.906
 4486TIP3    H221586   3.673   2.072   2.961
 4487TIP3   OH221587   2.184   1.909   2.907
 4487TIP3    H121588   2.100   1.903   2.857
 4487TIP3    H221589   2.213   1.815   2.904
 4488TIP3   OH221590   2.030   1.927   2.452
 4488TIP3    H121591   2.072   2.005   2.410
 4488TIP3    H221592   1.967   1.969   2.514
 4489TIP3   OH221593   2.594   1.912   2.912
 4489TIP3    H121594   2.686   1.903   2.883
 4489TIP3    H221595   2.605   1.934   3.006
 4490TIP3   OH221596   3.189   1.944   2.978
 4490TIP3    H121597   3.142   1.957   2.894
 4490TIP3    H221598   3.138   1.870   3.019
 4491TIP3   OH221599   3.329   1.948   2.656
 4491TIP3    H121600   3.259   2.003   2.618
 4491TIP3    H221601   3.280   1.866   2.678
 4492TIP3   OH221602   2.035   3.522   2.592
 4492TIP3    H121603   1.950   3.519   2.544
 4492TIP3    H221604   2.058   3.615   2.573
 4493TIP3   OH221605   2.172   2.132   2.351
 4493TIP3    H121606   2.231   2.075   2.297
 4493TIP3    H221607   2.231   2.152   2.425
 4494TIP3   OH221608   2.733   2.176   2.567
 4494TIP3    H121609   2.759   2.111   2.634
 4494TIP3    H221610   2.751   2.259   2.617
 4495TIP3   OH221611   2.968   3.710   2.458
 4495TIP3    H121612   3.053   3.679   2.421
 4495TIP3    H221613   2.910   3.675   2.388
 4496TIP3   OH221614   3.564   3.595   2.723
 4496TIP3    H121615   3.545   3.529   2.652
 4496TIP3    H221616   3.567   3.675   2.666
 4497TIP3   OH221617   2.150   1.967   3.846
 4497TIP3    H121618   2.110   1.884   3.878
 4497TIP3    H221619   2.217   1.988   3.914
 4498TIP3   OH221620   2.174   3.626   2.288
 4498TIP3    H121621   2.142   3.642   2.378
 4498TIP3    H221622   2.247   3.565   2.305
 4499TIP3   OH221623   3.511   3.493   3.883
 4499TIP3    H121624   3.456   3.478   3.803
 4499TIP3    H221625   3.461   3.567   3.920
 4500TIP3   OH221626   4.039   2.751   3.360
 4500TIP3    H121627   4.027   2.685   3.431
 4500TIP3    H221628   4.132   2.775   3.370
 4501TIP3   OH221629   4.161   3.211   3.253
 4501TIP3    H121630   4.121   3.138   3.202
 4501TIP3    H221631   4.255   3.183   3.245
 4502TIP3   OH221632   3.819   2.538   2.792
 4502TIP3    H121633   3.794   2.633   2.795
 4502TIP3    H221634   3.736   2.499   2.762
 4503TIP3   OH221635   3.825   2.759   3.046
 4503TIP3    H121636   3.869   2.672   3.064
 4503TIP3    H221637   3.895   2.807   3.001
 4504TIP3   OH221638   4.302   2.242   3.012
 4504TIP3    H121639   4.398   2.256   2.991
 4504TIP3    H221640   4.263   2.201   2.932
 4505TIP3   OH221641   3.950   2.529   3.094
 4505TIP3    H121642   4.026   2.500   3.148
 4505TIP3    H221643   3.960   2.468   3.018
 4506TIP3   OH221644   4.220   2.169   3.403
 4506TIP3    H121645   4.194   2.228   3.329
 4506TIP3    H221646   4.144   2.183   3.463
 4507TIP3   OH221647   4.406   2.933   3.448
 4507TIP3    H121648   4.355   3.017   3.455
 4507TIP3    H221649   4.477   2.950   3.381
 4508TIP3   OH221650   4.152   2.375   3.207
 4508TIP3    H121651   4.217   2.412   3.270
 4508TIP3    H221652   4.209   2.351   3.131
 4509TIP3   OH221653   4.299   3.150   3.551
 4509TIP3    H121654   4.296   3.242   3.519
 4509TIP3    H221655   4.205   3.137   3.575
 4510TIP3   OH221656   3.893   3.109   2.617
 4510TIP3    H121657   3.896   3.166   2.536
 4510TIP3    H221658   3.897   3.175   2.688
 4511TIP3   OH221659   4.299   2.840   2.968
 4511TIP3    H121660   4.264   2.805   2.883
 4511TIP3    H221661   4.381   2.788   2.974
 4512TIP3   OH221662   4.416   3.127   3.185
 4512TIP3    H121663   4.445   3.142   3.094
 4512TIP3    H221664   4.488   3.169   3.236
 4513TIP3   OH221665   4.356   2.733   3.285
 4513TIP3    H121666   4.366   2.789   3.206
 4513TIP3    H221667   4.378   2.799   3.355
 4514TIP3   OH221668   4.439   3.200   3.782
 4514TIP3    H121669   4.369   3.255   3.823
 4514TIP3    H221670   4.405   3.189   3.691
 4515TIP3   OH221671   4.188   2.781   3.698
 4515TIP3    H121672   4.232   2.859   3.663
 4515TIP3    H221673   4.097   2.793   3.668
 4516TIP3   OH221674   4.228   3.384   3.803
 4516TIP3    H121675   4.254   3.412   3.713
 4516TIP3    H221676   4.170   3.309   3.782
 4517TIP3   OH221677   4.226   2.738   2.731
 4517TIP3    H121678   4.191   2.804   2.669
 4517TIP3    H221679   4.177   2.658   2.711
 4518TIP3   OH221680   3.814   3.039   3.577
 4518TIP3    H121681   3.803   3.034   3.481
 4518TIP3    H221682   3.831   2.943   3.595
 4519TIP3   OH221683   3.843   3.303   3.218
 4519TIP3    H121684   3.928   3.257   3.215
 4519TIP3    H221685   3.861   3.370   3.286
 4520TIP3   OH221686   4.158   3.576   2.878
 4520TIP3    H121687   4.160   3.510   2.952
 4520TIP3    H221688   4.087   3.537   2.822
 4521TIP3   OH221689   4.062   3.136   3.670
 4521TIP3    H121690   4.079   3.079   3.750
 4521TIP3    H221691   3.972   3.107   3.646
 4522TIP3   OH221692   4.353   1.948   3.286
 4522TIP3    H121693   4.269   1.954   3.236
 4522TIP3    H221694   4.343   2.029   3.339
 4523TIP3   OH221695   4.258   2.474   3.442
 4523TIP3    H121696   4.200   2.538   3.485
 4523TIP3    H221697   4.333   2.526   3.408
 4524TIP3   OH221698   4.315   2.492   2.894
 4524TIP3    H121699   4.290   2.404   2.926
 4524TIP3    H221700   4.325   2.474   2.798
 4525TIP3   OH221701   4.029   2.544   3.567
 4525TIP3    H121702   4.106   2.536   3.626
 4525TIP3    H221703   4.015   2.450   3.546
 4526TIP3   OH221704   4.452   2.243   2.288
 4526TIP3    H121705   4.381   2.201   2.340
 4526TIP3    H221706   4.406   2.312   2.238
 4527TIP3   OH221707   3.767   2.204   2.988
 4527TIP3    H121708   3.824   2.210   3.065
 4527TIP3    H221709   3.827   2.231   2.916
 4528TIP3   OH221710   3.899   2.280   2.517
 4528TIP3    H121711   3.953   2.298   2.438
 4528TIP3    H221712   3.843   2.360   2.519
 4529TIP3   OH221713   3.994   2.350   2.867
 4529TIP3    H121714   3.943   2.415   2.813
 4529TIP3    H221715   4.010   2.278   2.804
 4530TIP3   OH221716   4.344   2.408   2.638
 4530TIP3    H121717   4.440   2.401   2.627
 4530TIP3    H221718   4.327   2.481   2.573
 4531TIP3   OH221719   4.297   2.571   2.431
 4531TIP3    H121720   4.207   2.547   2.400
 4531TIP3    H221721   4.342   2.549   2.347
 4532TIP3   OH221722   4.105   3.017   3.909
 4532TIP3    H121723   4.180   3.057   3.960
 4532TIP3    H221724   4.035   3.014   3.977
 4533TIP3   OH221725   4.193   2.086   2.810
 4533TIP3    H121726   4.126   2.037   2.864
 4533TIP3    H221727   4.248   2.014   2.777
 4534TIP3   OH221728   4.121   2.969   3.132
 4534TIP3    H121729   4.192   2.956   3.066
 4534TIP3    H221730   4.107   2.880   3.167
 4535TIP3   OH221731   3.854   2.784   3.628
 4535TIP3    H121732   3.885   2.740   3.710
 4535TIP3    H221733   3.795   2.718   3.589
 4536TIP3   OH221734   4.402   3.294   2.883
 4536TIP3    H121735   4.404   3.367   2.820
 4536TIP3    H221736   4.307   3.285   2.897
 4537TIP3   OH221737   3.998   2.791   2.361
 4537TIP3    H121738   4.045   2.846   2.426
 4537TIP3    H221739   3.905   2.798   2.391
 4538TIP3   OH221740   4.416   3.568   2.802
 4538TIP3    H121741   4.321   3.581   2.826
 4538TIP3    H221742   4.457   3.551   2.889
 4539TIP3   OH221743   3.990   2.233   3.553
 4539TIP3    H121744   3.906   2.272   3.522
 4539TIP3    H221745   3.958   2.146   3.584
 4540TIP3   OH221746   3.975   3.431   3.480
 4540TIP3    H121747   4.040   3.359   3.487
 4540TIP3    H221748   3.950   3.449   3.572
 4541TIP3   OH221749   4.378   3.226   2.531
 4541TIP3    H121750   4.456   3.171   2.519
 4541TIP3    H221751   4.409   3.316   2.516
 4542TIP3   OH221752   4.112   2.954   2.542
 4542TIP3    H121753   4.034   2.993   2.585
 4542TIP3    H221754   4.152   3.033   2.504
 4543TIP3   OH221755   4.408   3.510   2.535
 4543TIP3    H121756   4.393   3.597   2.496
 4543TIP3    H221757   4.412   3.532   2.632
 4544TIP3   OH221758   4.266   2.191   2.488
 4544TIP3    H121759   4.258   2.273   2.540
 4544TIP3    H221760   4.325   2.144   2.551
 4545TIP3   OH221761   4.155   3.220   2.388
 4545TIP3    H121762   4.229   3.236   2.451
 4545TIP3    H221763   4.202   3.170   2.318
 4546TIP3   OH221764   4.015   2.511   2.322
 4546TIP3    H121765   4.003   2.604   2.350
 4546TIP3    H221766   3.933   2.490   2.275
 4547TIP3   OH221767   4.090   1.955   3.201
 4547TIP3    H121768   4.077   1.938   3.105
 4547TIP3    H221769   4.061   1.870   3.239
 4548TIP3   OH221770   3.950   3.405   2.796
 4548TIP3    H121771   3.872   3.442   2.840
 4548TIP3    H221772   3.942   3.442   2.705
 4549TIP3   OH221773   3.865   2.964   4.030
 4549TIP3    H121774   3.813   3.030   3.980
 4549TIP3    H221775   3.834   2.982   4.121
 4550TIP3   OH221776   4.281   3.038   2.216
 4550TIP3    H121777   4.280   2.966   2.281
 4550TIP3    H221778   4.376   3.041   2.192
 4551TIP3   OH221779   3.934   2.741   3.869
 4551TIP3    H121780   4.030   2.757   3.864
 4551TIP3    H221781   3.906   2.819   3.922
 4552TIP3   OH221782   4.420   2.823   2.442
 4552TIP3    H121783   4.405   2.849   2.534
 4552TIP3    H221784   4.367   2.741   2.437
 4553TIP3   OH221785   4.437   2.215   3.556
 4553TIP3    H121786   4.469   2.265   3.480
 4553TIP3    H221787   4.346   2.198   3.523
 4554TIP3   OH221788   3.891   3.242   2.378
 4554TIP3    H121789   3.988   3.245   2.364
 4554TIP3    H221790   3.864   3.180   2.306
 4555TIP3   OH221791   3.788   3.658   2.843
 4555TIP3    H121792   3.702   3.624   2.807
 4555TIP3    H221793   3.795   3.605   2.925
 4556TIP3   OH221794   3.848   3.517   3.054
 4556TIP3    H121795   3.826   3.429   3.091
 4556TIP3    H221796   3.906   3.553   3.124
 4557TIP3   OH221797   3.830   2.893   3.285
 4557TIP3    H121798   3.824   2.849   3.197
 4557TIP3    H221799   3.914   2.854   3.320
 4558TIP3   OH221800   3.934   2.183   3.229
 4558TIP3    H121801   3.989   2.101   3.221
 4558TIP3    H221802   4.001   2.251   3.210
 4559TIP3   OH221803   3.809   2.494   3.322
 4559TIP3    H121804   3.864   2.482   3.243
 4559TIP3    H221805   3.831   2.585   3.347
 4560TIP3   OH221806   3.796   2.110   2.701
 4560TIP3    H121807   3.701   2.127   2.692
 4560TIP3    H221808   3.835   2.170   2.634
 4561TIP3   OH221809   3.844   1.974   3.532
 4561TIP3    H121810   3.767   1.946   3.586
 4561TIP3    H221811   3.802   2.031   3.466
 4562TIP3   OH221812   4.320   3.418   3.558
 4562TIP3    H121813   4.302   3.507   3.518
 4562TIP3    H221814   4.416   3.421   3.558
 4563TIP3   OH221815   4.080   3.732   3.594
 4563TIP3    H121816   4.017   3.766   3.526
 4563TIP3    H221817   4.036   3.772   3.670
 4564TIP3   OH221818   4.281   3.648   3.448
 4564TIP3    H121819   4.207   3.686   3.502
 4564TIP3    H221820   4.286   3.711   3.375
 4565TIP3   OH221821   4.017   3.566   3.255
 4565TIP3    H121822   4.004   3.528   3.345
 4565TIP3    H221823   4.093   3.512   3.223
 4566TIP3   OH221824   4.202   3.419   3.092
 4566TIP3    H121825   4.176   3.337   3.139
 4566TIP3    H221826   4.285   3.441   3.139
 4567TIP3   OH221827   4.418   3.474   3.241
 4567TIP3    H121828   4.473   3.399   3.275
 4567TIP3    H221829   4.433   3.545   3.306
 4568TIP3   OH221830   4.023   1.911   2.941
 4568TIP3    H121831   3.928   1.891   2.920
 4568TIP3    H221832   4.066   1.827   2.916
 4569TIP3   OH221833   3.940   1.930   2.459
 4569TIP3    H121834   3.986   2.009   2.424
 4569TIP3    H221835   3.877   1.969   2.522
 4570TIP3   OH221836   3.933   3.530   2.561
 4570TIP3    H121837   3.863   3.523   2.493
 4570TIP3    H221838   3.957   3.623   2.546
 4571TIP3   OH221839   4.080   2.137   2.313
 4571TIP3    H121840   4.133   2.073   2.261
 4571TIP3    H221841   4.148   2.163   2.379
 4572TIP3   OH221842   4.234   1.872   3.973
 4572TIP3    H121843   4.329   1.880   3.972
 4572TIP3    H221844   4.219   1.791   4.028
 4573TIP3   OH221845   4.109   3.658   2.294
 4573TIP3    H121846   4.051   3.684   2.369
 4573TIP3    H221847   4.157   3.582   2.332
 4574TIP3   OH221848   0.083   0.020   2.847
 4574TIP3    H121849   0.067   0.112   2.820
 4574TIP3    H221850   0.047  -0.029   2.770
 4575TIP3   OH221851   1.769   4.025   3.379
 4575TIP3    H121852   1.793   4.106   3.429
 4575TIP3    H221853   1.828   4.029   3.303
 4576TIP3   OH221854   1.291   4.385   3.338
 4576TIP3    H121855   1.288   4.293   3.304
 4576TIP3    H221856   1.198   4.406   3.325
 4577TIP3   OH221857   0.592   4.112   2.997
 4577TIP3    H121858   0.583   4.202   2.957
 4577TIP3    H221859   0.522   4.065   2.947
 4578TIP3   OH221860   1.308   4.187   2.855
 4578TIP3    H121861   1.349   4.143   2.933
 4578TIP3    H221862   1.388   4.224   2.815
 4579TIP3   OH221863   0.254   4.346   3.082
 4579TIP3    H121864   0.323   4.282   3.110
 4579TIP3    H221865   0.238   4.313   2.990
 4580TIP3   OH221866   1.787   4.225   3.560
 4580TIP3    H121867   1.732   4.290   3.511
 4580TIP3    H221868   1.772   4.253   3.652
 4581TIP3   OH221869   0.476   4.054   3.441
 4581TIP3    H121870   0.437   4.112   3.371
 4581TIP3    H221871   0.420   4.079   3.516
 4582TIP3   OH221872   1.482   4.108   3.057
 4582TIP3    H121873   1.499   4.062   3.140
 4582TIP3    H221874   1.566   4.157   3.051
 4583TIP3   OH221875   0.431   4.187   3.215
 4583TIP3    H121876   0.482   4.264   3.250
 4583TIP3    H221877   0.495   4.150   3.151
 4584TIP3   OH221878   1.498   4.049   3.431
 4584TIP3    H121879   1.440   4.112   3.387
 4584TIP3    H221880   1.587   4.074   3.396
 4585TIP3   OH221881   0.778   3.762   3.220
 4585TIP3    H121882   0.742   3.730   3.136
 4585TIP3    H221883   0.700   3.815   3.250
 4586TIP3   OH221884   1.681   3.754   2.542
 4586TIP3    H121885   1.599   3.783   2.587
 4586TIP3    H221886   1.714   3.841   2.511
 4587TIP3   OH221887   1.527   4.344   3.888
 4587TIP3    H121888   1.595   4.414   3.893
 4587TIP3    H221889   1.565   4.278   3.829
 4588TIP3   OH221890   0.547   3.889   3.250
 4588TIP3    H121891   0.459   3.888   3.209
 4588TIP3    H221892   0.532   3.955   3.322
 4589TIP3   OH221893   1.015   3.835   3.595
 4589TIP3    H121894   0.995   3.816   3.689
 4589TIP3    H221895   0.924   3.828   3.559
 4590TIP3   OH221896   1.274   4.221   3.724
 4590TIP3    H121897   1.337   4.261   3.787
 4590TIP3    H221898   1.216   4.295   3.700
 4591TIP3   OH221899   0.998   4.097   2.350
 4591TIP3    H121900   0.983   4.061   2.439
 4591TIP3    H221901   0.944   4.036   2.295
 4592TIP3   OH221902   0.579   4.358   3.384
 4592TIP3    H121903   0.535   4.377   3.470
 4592TIP3    H221904   0.598   4.451   3.358
 4593TIP3   OH221905   0.527   4.376   2.931
 4593TIP3    H121906   0.458   4.383   2.862
 4593TIP3    H221907   0.604   4.421   2.888
 4594TIP3   OH221908   1.099   4.454   2.774
 4594TIP3    H121909   1.078   4.544   2.742
 4594TIP3    H221910   1.154   4.422   2.699
 4595TIP3   OH221911   1.127   4.367   3.020
 4595TIP3    H121912   1.092   4.403   2.936
 4595TIP3    H221913   1.183   4.297   2.983
 4596TIP3   OH221914   0.435   4.452   3.596
 4596TIP3    H121915   0.456   4.423   3.687
 4596TIP3    H221916   0.338   4.439   3.596
 4597TIP3   OH221917   0.655   4.138   2.234
 4597TIP3    H121918   0.619   4.106   2.321
 4597TIP3    H221919   0.593   4.209   2.210
 4598TIP3   OH221920   0.051   4.099   2.987
 4598TIP3    H121921   0.076   4.104   3.081
 4598TIP3    H221922   0.018   4.007   2.977
 4599TIP3   OH221923   0.123   4.197   2.506
 4599TIP3    H121924   0.204   4.241   2.473
 4599TIP3    H221925   0.070   4.188   2.424
 4600TIP3   OH221926   0.875   4.123   2.987
 4600TIP3    H121927   0.780   4.130   3.009
 4600TIP3    H221928   0.908   4.063   3.058
 4601TIP3   OH221929   0.282   4.241   2.832
 4601TIP3    H121930   0.197   4.218   2.793
 4601TIP3    H221931   0.331   4.156   2.838
 4602TIP3   OH221932   0.661   4.263   2.650
 4602TIP3    H121933   0.744   4.304   2.679
 4602TIP3    H221934   0.622   4.335   2.597
 4603TIP3   OH221935   1.255   4.124   3.300
 4603TIP3    H121936   1.206   4.085   3.376
 4603TIP3    H221937   1.249   4.055   3.233
 4604TIP3   OH221938   0.542   4.431   2.455
 4604TIP3    H121939   0.458   4.419   2.408
 4604TIP3    H221940   0.609   4.416   2.387
 4605TIP3   OH221941   0.996   4.381   3.268
 4605TIP3    H121942   1.037   4.388   3.180
 4605TIP3    H221943   0.966   4.288   3.266
 4606TIP3   OH221944   0.404   4.006   2.846
 4606TIP3    H121945   0.364   3.919   2.871
 4606TIP3    H221946   0.440   3.988   2.758
 4607TIP3   OH221947   0.800   4.216   3.357
 4607TIP3    H121948   0.718   4.270   3.364
 4607TIP3    H221949   0.863   4.277   3.398
 4608TIP3   OH221950   1.220   4.129   2.477
 4608TIP3    H121951   1.148   4.121   2.410
 4608TIP3    H221952   1.217   4.227   2.487
 4609TIP3   OH221953   1.246   4.373   2.568
 4609TIP3    H121954   1.315   4.320   2.612
 4609TIP3    H221955   1.305   4.442   2.532
 4610TIP3   OH221956   1.783   4.330   2.519
 4610TIP3    H121957   1.753   4.347   2.426
 4610TIP3    H221958   1.763   4.419   2.558
 4611TIP3   OH221959   0.302   4.142   3.684
 4611TIP3    H121960   0.211   4.128   3.655
 4611TIP3    H221961   0.311   4.071   3.750
 4612TIP3   OH221962   1.127   4.065   3.539
 4612TIP3    H121963   1.175   4.088   3.621
 4612TIP3    H221964   1.082   3.981   3.562
 4613TIP3   OH221965   1.192   3.989   2.705
 4613TIP3    H121966   1.199   4.031   2.617
 4613TIP3    H221967   1.238   4.055   2.760
 4614TIP3   OH221968   0.958   4.209   2.736
 4614TIP3    H121969   1.000   4.296   2.743
 4614TIP3    H221970   0.929   4.191   2.828
 4615TIP3   OH221971   1.023   4.321   3.607
 4615TIP3    H121972   0.980   4.290   3.689
 4615TIP3    H221973   1.054   4.237   3.567
 4616TIP3   OH221974   0.968   3.906   2.822
 4616TIP3    H121975   0.943   3.985   2.874
 4616TIP3    H221976   1.052   3.941   2.782
 4617TIP3   OH221977   0.593   4.058   2.477
 4617TIP3    H121978   0.592   4.129   2.545
 4617TIP3    H221979   0.661   3.999   2.515
 4618TIP3   OH221980   1.574   4.111   3.714
 4618TIP3    H121981   1.480   4.099   3.694
 4618TIP3    H221982   1.615   4.100   3.625
 4619TIP3   OH221983   0.288   4.352   2.367
 4619TIP3    H121984   0.228   4.425   2.398
 4619TIP3    H221985   0.282   4.357   2.270
 4620TIP3   OH221986   0.298   3.841   3.166
 4620TIP3    H121987   0.295   3.817   3.071
 4620TIP3    H221988   0.280   3.751   3.204
 4621TIP3   OH221989   0.676   4.251   3.759
 4621TIP3    H121990   0.694   4.176   3.697
 4621TIP3    H221991   0.766   4.279   3.782
 4622TIP3   OH221992   0.718   4.070   3.562
 4622TIP3    H121993   0.771   4.110   3.489
 4622TIP3    H221994   0.630   4.086   3.523
 4623TIP3   OH221995   0.454   4.354   3.868
 4623TIP3    H121996   0.421   4.264   3.880
 4623TIP3    H221997   0.546   4.334   3.842
 4624TIP3   OH221998   0.759   3.798   3.530
 4624TIP3    H121999   0.730   3.891   3.545
 4624TIP3    H222000   0.674   3.755   3.505
 4625TIP3   OH222001   0.941   4.230   3.845
 4625TIP3    H122002   0.956   4.292   3.920
 4625TIP3    H222003   0.904   4.154   3.891
 4626TIP3   OH222004   0.867   3.753   3.812
 4626TIP3    H122005   0.811   3.772   3.887
 4626TIP3    H222006   0.804   3.729   3.742
 4627TIP3   OH222007   1.658   4.359   2.276
 4627TIP3    H122008   1.640   4.401   2.190
 4627TIP3    H222009   1.634   4.267   2.255
 4628TIP3   OH222010   1.583   4.100   2.198
 4628TIP3    H122011   1.652   4.047   2.242
 4628TIP3    H222012   1.501   4.054   2.221
 4629TIP3   OH222013   1.554   4.236   2.669
 4629TIP3    H122014   1.587   4.152   2.706
 4629TIP3    H222015   1.633   4.269   2.624
 4630TIP3   OH222016   1.668   4.260   3.256
 4630TIP3    H122017   1.750   4.313   3.274
 4630TIP3    H222018   1.600   4.324   3.280
 4631TIP3   OH222019   1.557   4.394   3.489
 4631TIP3    H122020   1.462   4.379   3.471
 4631TIP3    H222021   1.561   4.485   3.453
 4632TIP3   OH222022   0.053   4.208   3.934
 4632TIP3    H122023   0.124   4.225   3.871
 4632TIP3    H222024  -0.022   4.254   3.890
 4633TIP3   OH222025   1.655   3.982   2.725
 4633TIP3    H122026   1.667   3.959   2.819
 4633TIP3    H222027   1.571   3.933   2.708
 4634TIP3   OH222028   0.122   4.039   3.262
 4634TIP3    H122029   0.179   3.961   3.252
 4634TIP3    H222030   0.185   4.112   3.251
 4635TIP3   OH222031   0.004   4.349   3.216
 4635TIP3    H122032   0.091   4.354   3.171
 4635TIP3    H222033   0.006   4.429   3.273
 4636TIP3   OH222034   1.856   4.042   3.842
 4636TIP3    H122035   1.775   4.029   3.789
 4636TIP3    H222036   1.877   3.950   3.868
 4637TIP3   OH222037   1.802   3.971   2.404
 4637TIP3    H122038   1.836   3.920   2.328
 4637TIP3    H222039   1.878   4.028   2.427
 4638TIP3   OH222040   0.028   3.991   2.651
 4638TIP3    H122041   0.015   4.013   2.745
 4638TIP3    H222042   0.066   4.074   2.614
 4639TIP3   OH222043   4.539   3.835   3.557
 4639TIP3    H122044   4.446   3.817   3.580
 4639TIP3    H222045   4.533   3.927   3.530
 4640TIP3   OH222046   1.704   3.824   3.667
 4640TIP3    H122047   1.613   3.834   3.635
 4640TIP3    H222048   1.724   3.732   3.641
 4641TIP3   OH222049   0.972   3.914   3.131
 4641TIP3    H122050   0.897   3.877   3.181
 4641TIP3    H222051   1.009   3.833   3.095
 4642TIP3   OH222052   1.558   3.743   3.091
 4642TIP3    H122053   1.617   3.813   3.052
 4642TIP3    H222054   1.470   3.778   3.066
 4643TIP3   OH222055   1.727   3.903   2.970
 4643TIP3    H122056   1.789   3.838   2.929
 4643TIP3    H222057   1.786   3.982   2.974
 4644TIP3   OH222058   0.283   3.769   2.896
 4644TIP3    H122059   0.211   3.751   2.833
 4644TIP3    H222060   0.327   3.680   2.901
 4645TIP3   OH222061   0.163   3.781   2.515
 4645TIP3    H122062   0.207   3.823   2.439
 4645TIP3    H222063   0.116   3.858   2.553
 4646TIP3   OH222064   0.720   3.740   2.935
 4646TIP3    H122065   0.807   3.756   2.894
 4646TIP3    H222066   0.686   3.829   2.949
 4647TIP3   OH222067   1.308   3.797   2.996
 4647TIP3    H122068   1.262   3.816   2.913
 4647TIP3    H222069   1.250   3.731   3.040
 4648TIP3   OH222070   1.449   3.831   2.664
 4648TIP3    H122071   1.365   3.835   2.616
 4648TIP3    H222072   1.433   3.753   2.722
 4649TIP3   OH222073   0.277   3.977   2.333
 4649TIP3    H122074   0.352   3.943   2.281
 4649TIP3    H222075   0.324   4.015   2.409
 4650TIP3   OH222076   0.809   3.959   2.611
 4650TIP3    H122077   0.856   3.913   2.684
 4650TIP3    H222078   0.833   4.052   2.631
 4651TIP3   OH222079   0.291   3.915   3.853
 4651TIP3    H122080   0.220   3.849   3.863
 4651TIP3    H222081   0.367   3.866   3.890
 4652TIP3   OH222082   2.004   4.416   2.754
 4652TIP3    H122083   1.933   4.482   2.747
 4652TIP3    H222084   2.023   4.411   2.658
 4653TIP3   OH222085   3.655   3.996   3.425
 4653TIP3    H122086   3.669   4.079   3.478
 4653TIP3    H222087   3.684   4.031   3.339
 4654TIP3   OH222088   3.189   4.347   3.350
 4654TIP3    H122089   3.172   4.253   3.328
 4654TIP3    H222090   3.114   4.390   3.307
 4655TIP3   OH222091   2.463   4.098   3.004
 4655TIP3    H122092   2.458   4.193   2.981
 4655TIP3    H222093   2.399   4.061   2.940
 4656TIP3   OH222094   3.183   4.188   2.886
 4656TIP3    H122095   3.234   4.147   2.960
 4656TIP3    H222096   3.257   4.222   2.835
 4657TIP3   OH222097   2.081   4.358   3.116
 4657TIP3    H122098   2.101   4.274   3.161
 4657TIP3    H222099   2.088   4.327   3.023
 4658TIP3   OH222100   3.660   4.211   3.577
 4658TIP3    H122101   3.603   4.284   3.544
 4658TIP3    H222102   3.690   4.241   3.665
 4659TIP3   OH222103   2.340   4.054   3.449
 4659TIP3    H122104   2.292   4.103   3.380
 4659TIP3    H222105   2.273   4.052   3.520
 4660TIP3   OH222106   3.387   4.115   3.051
 4660TIP3    H122107   3.407   4.050   3.119
 4660TIP3    H222108   3.467   4.170   3.057
 4661TIP3   OH222109   2.288   4.221   3.231
 4661TIP3    H122110   2.332   4.304   3.261
 4661TIP3    H222111   2.334   4.207   3.146
 4662TIP3   OH222112   3.380   4.014   3.426
 4662TIP3    H122113   3.382   4.081   3.355
 4662TIP3    H222114   3.477   3.992   3.431
 4663TIP3   OH222115   2.665   3.778   3.222
 4663TIP3    H122116   2.624   3.697   3.186
 4663TIP3    H222117   2.581   3.824   3.244
 4664TIP3   OH222118   3.559   3.777   2.536
 4664TIP3    H122119   3.469   3.803   2.568
 4664TIP3    H222120   3.590   3.859   2.492
 4665TIP3   OH222121   3.450   4.384   3.830
 4665TIP3    H122122   3.355   4.400   3.847
 4665TIP3    H222123   3.447   4.287   3.825
 4666TIP3   OH222124   2.425   3.874   3.275
 4666TIP3    H122125   2.335   3.878   3.237
 4666TIP3    H222126   2.422   3.952   3.334
 4667TIP3   OH222127   2.900   3.862   3.586
 4667TIP3    H122128   2.948   3.820   3.661
 4667TIP3    H222129   2.805   3.845   3.607
 4668TIP3   OH222130   3.203   4.289   3.715
 4668TIP3    H122131   3.139   4.302   3.785
 4668TIP3    H222132   3.159   4.330   3.639
 4669TIP3   OH222133   2.888   4.106   2.335
 4669TIP3    H122134   2.865   4.073   2.423
 4669TIP3    H222135   2.833   4.046   2.281
 4670TIP3   OH222136   2.462   4.361   3.401
 4670TIP3    H122137   2.382   4.361   3.460
 4670TIP3    H222138   2.458   4.452   3.364
 4671TIP3   OH222139   2.416   4.368   2.946
 4671TIP3    H122140   2.369   4.344   2.865
 4671TIP3    H222141   2.495   4.415   2.910
 4672TIP3   OH222142   3.000   4.470   2.793
 4672TIP3    H122143   2.959   4.552   2.758
 4672TIP3    H222144   3.041   4.432   2.711
 4673TIP3   OH222145   2.939   4.402   3.893
 4673TIP3    H122146   2.911   4.402   3.985
 4673TIP3    H222147   3.029   4.441   3.908
 4674TIP3   OH222148   3.014   4.371   3.040
 4674TIP3    H122149   2.998   4.396   2.946
 4674TIP3    H222150   3.074   4.295   3.029
 4675TIP3   OH222151   2.240   4.355   3.548
 4675TIP3    H122152   2.205   4.416   3.615
 4675TIP3    H222153   2.206   4.270   3.578
 4676TIP3   OH222154   2.532   4.167   2.256
 4676TIP3    H122155   2.479   4.135   2.332
 4676TIP3    H222156   2.467   4.219   2.205
 4677TIP3   OH222157   1.896   4.099   2.984
 4677TIP3    H122158   1.962   4.084   3.054
 4677TIP3    H222159   1.947   4.123   2.906
 4678TIP3   OH222160   1.988   4.167   2.499
 4678TIP3    H122161   2.035   4.221   2.432
 4678TIP3    H222162   1.911   4.227   2.513
 4679TIP3   OH222163   2.748   4.132   3.006
 4679TIP3    H122164   2.653   4.124   3.027
 4679TIP3    H222165   2.788   4.068   3.068
 4680TIP3   OH222166   2.160   4.215   2.892
 4680TIP3    H122167   2.104   4.255   2.823
 4680TIP3    H222168   2.204   4.142   2.841
 4681TIP3   OH222169   2.544   4.256   2.656
 4681TIP3    H122170   2.638   4.280   2.667
 4681TIP3    H222171   2.508   4.330   2.604
 4682TIP3   OH222172   3.126   4.092   3.288
 4682TIP3    H122173   3.077   4.064   3.368
 4682TIP3    H222174   3.127   4.013   3.232
 4683TIP3   OH222175   2.433   4.411   2.394
 4683TIP3    H122176   2.377   4.407   2.316
 4683TIP3    H222177   2.519   4.384   2.359
 4684TIP3   OH222178   2.845   4.391   3.244
 4684TIP3    H122179   2.905   4.391   3.167
 4684TIP3    H222180   2.811   4.300   3.242
 4685TIP3   OH222181   2.296   3.991   2.800
 4685TIP3    H122182   2.254   3.916   2.849
 4685TIP3    H222183   2.335   3.948   2.722
 4686TIP3   OH222184   2.684   4.212   3.379
 4686TIP3    H122185   2.608   4.273   3.371
 4686TIP3    H222186   2.744   4.266   3.433
 4687TIP3   OH222187   3.104   4.133   2.488
 4687TIP3    H122188   3.041   4.127   2.414
 4687TIP3    H222189   3.109   4.231   2.496
 4688TIP3   OH222190   3.138   4.376   2.572
 4688TIP3    H122191   3.207   4.323   2.618
 4688TIP3    H222192   3.195   4.446   2.535
 4689TIP3   OH222193   3.671   4.295   2.554
 4689TIP3    H122194   3.631   4.265   2.470
 4689TIP3    H222195   3.650   4.392   2.552
 4690TIP3   OH222196   2.121   4.114   3.617
 4690TIP3    H122197   2.030   4.134   3.589
 4690TIP3    H222198   2.105   4.058   3.695
 4691TIP3   OH222199   3.070   4.062   3.559
 4691TIP3    H122200   3.157   4.019   3.550
 4691TIP3    H222201   3.008   3.986   3.554
 4692TIP3   OH222202   3.106   3.983   2.701
 4692TIP3    H122203   3.089   4.037   2.620
 4692TIP3    H222204   3.138   4.052   2.762
 4693TIP3   OH222205   2.845   4.211   2.766
 4693TIP3    H122206   2.872   4.305   2.771
 4693TIP3    H222207   2.806   4.195   2.854
 4694TIP3   OH222208   2.884   4.284   3.627
 4694TIP3    H122209   2.903   4.268   3.721
 4694TIP3    H222210   2.951   4.230   3.581
 4695TIP3   OH222211   2.874   3.906   2.836
 4695TIP3    H122212   2.842   3.979   2.893
 4695TIP3    H222213   2.955   3.948   2.798
 4696TIP3   OH222214   2.411   4.068   2.491
 4696TIP3    H122215   2.436   4.133   2.559
 4696TIP3    H222216   2.476   3.998   2.508
 4697TIP3   OH222217   3.444   4.113   3.746
 4697TIP3    H122218   3.355   4.135   3.711
 4697TIP3    H222219   3.503   4.125   3.669
 4698TIP3   OH222220   2.058   4.361   2.320
 4698TIP3    H122221   2.073   4.421   2.396
 4698TIP3    H222222   1.996   4.417   2.269
 4699TIP3   OH222223   2.168   3.840   3.208
 4699TIP3    H122224   2.176   3.837   3.111
 4699TIP3    H222225   2.158   3.744   3.226
 4700TIP3   OH222226   2.468   4.222   3.798
 4700TIP3    H122227   2.513   4.171   3.727
 4700TIP3    H222228   2.539   4.286   3.820
 4701TIP3   OH222229   2.563   4.089   3.586
 4701TIP3    H122230   2.617   4.130   3.515
 4701TIP3    H222231   2.474   4.094   3.543
 4702TIP3   OH222232   2.321   4.411   3.936
 4702TIP3    H122233   2.339   4.324   3.896
 4702TIP3    H222234   2.400   4.415   3.992
 4703TIP3   OH222235   2.632   3.821   3.600
 4703TIP3    H122236   2.591   3.911   3.595
 4703TIP3    H222237   2.568   3.768   3.549
 4704TIP3   OH222238   3.004   4.094   3.873
 4704TIP3    H122239   2.965   4.103   3.785
 4704TIP3    H222240   3.094   4.068   3.849
 4705TIP3   OH222241   2.642   3.790   3.878
 4705TIP3    H122242   2.647   3.695   3.894
 4705TIP3    H222243   2.633   3.797   3.781
 4706TIP3   OH222244   3.505   4.348   2.286
 4706TIP3    H122245   3.470   4.386   2.203
 4706TIP3    H222246   3.525   4.257   2.257
 4707TIP3   OH222247   3.520   4.085   2.211
 4707TIP3    H122248   3.581   4.045   2.278
 4707TIP3    H222249   3.433   4.047   2.232
 4708TIP3   OH222250   3.422   4.238   2.698
 4708TIP3    H122251   3.450   4.149   2.729
 4708TIP3    H222252   3.504   4.270   2.655
 4709TIP3   OH222253   3.565   4.224   3.263
 4709TIP3    H122254   3.651   4.274   3.264
 4709TIP3    H222255   3.513   4.282   3.322
 4710TIP3   OH222256   3.450   4.369   3.447
 4710TIP3    H122257   3.356   4.354   3.419
 4710TIP3    H222258   3.459   4.461   3.418
 4711TIP3   OH222259   3.474   3.974   2.754
 4711TIP3    H122260   3.519   3.916   2.819
 4711TIP3    H222261   3.406   3.914   2.718
 4712TIP3   OH222262   2.049   4.084   3.252
 4712TIP3    H122263   2.085   3.993   3.254
 4712TIP3    H222264   2.132   4.136   3.259
 4713TIP3   OH222265   1.886   4.419   3.305
 4713TIP3    H122266   1.953   4.384   3.242
 4713TIP3    H222267   1.930   4.495   3.348
 4714TIP3   OH222268   3.689   3.988   2.397
 4714TIP3    H122269   3.732   3.926   2.333
 4714TIP3    H222270   3.767   4.023   2.445
 4715TIP3   OH222271   1.923   3.989   2.679
 4715TIP3    H122272   1.825   3.991   2.681
 4715TIP3    H222273   1.940   4.049   2.604
 4716TIP3   OH222274   1.936   3.865   3.531
 4716TIP3    H122275   1.852   3.848   3.580
 4716TIP3    H222276   1.902   3.928   3.465
 4717TIP3   OH222277   3.581   3.807   3.738
 4717TIP3    H122278   3.550   3.868   3.670
 4717TIP3    H222279   3.612   3.729   3.687
 4718TIP3   OH222280   2.872   3.902   3.108
 4718TIP3    H122281   2.798   3.851   3.149
 4718TIP3    H222282   2.898   3.845   3.035
 4719TIP3   OH222283   3.458   3.814   3.151
 4719TIP3    H122284   3.523   3.851   3.087
 4719TIP3    H222285   3.374   3.813   3.098
 4720TIP3   OH222286   3.636   3.862   2.962
 4720TIP3    H122287   3.699   3.807   2.911
 4720TIP3    H222288   3.688   3.946   2.975
 4721TIP3   OH222289   2.177   3.792   2.935
 4721TIP3    H122290   2.087   3.788   2.896
 4721TIP3    H222291   2.206   3.698   2.927
 4722TIP3   OH222292   2.049   3.789   2.493
 4722TIP3    H122293   2.090   3.858   2.437
 4722TIP3    H222294   2.003   3.843   2.560
 4723TIP3   OH222295   2.597   3.760   2.927
 4723TIP3    H122296   2.685   3.783   2.894
 4723TIP3    H222297   2.564   3.843   2.963
 4724TIP3   OH222298   3.202   3.807   3.029
 4724TIP3    H122299   3.159   3.841   2.950
 4724TIP3    H222300   3.150   3.725   3.046
 4725TIP3   OH222301   3.309   3.807   2.638
 4725TIP3    H122302   3.227   3.860   2.650
 4725TIP3    H222303   3.274   3.716   2.652
 4726TIP3   OH222304   2.173   4.019   2.324
 4726TIP3    H122305   2.243   3.959   2.291
 4726TIP3    H222306   2.225   4.070   2.390
 4727TIP3   OH222307   2.705   3.956   2.626
 4727TIP3    H122308   2.757   3.910   2.694
 4727TIP3    H222309   2.717   4.048   2.654
 4728TIP3   OH222310   2.145   3.863   3.877
 4728TIP3    H122311   2.100   3.781   3.905
 4728TIP3    H222312   2.215   3.874   3.945
 4729TIP3   OH222313   2.366   3.839   4.092
 4729TIP3    H122314   2.442   3.784   4.069
 4729TIP3    H222315   2.343   3.807   4.181
 4730TIP3   OH222316   3.197   3.684   4.008
 4730TIP3    H122317   3.155   3.735   4.077
 4730TIP3    H222318   3.285   3.727   4.000
 4731TIP3   OH222319   3.821   4.468   2.777
 4731TIP3    H122320   3.785   4.553   2.749
 4731TIP3    H222321   3.801   4.417   2.698
 4732TIP3   OH222322   4.291   4.207   3.008
 4732TIP3    H122323   4.388   4.186   3.010
 4732TIP3    H222324   4.258   4.144   2.941
 4733TIP3   OH222325   3.970   4.348   3.094
 4733TIP3    H122326   3.987   4.264   3.143
 4733TIP3    H222327   3.991   4.319   3.003
 4734TIP3   OH222328   4.224   4.019   3.449
 4734TIP3    H122329   4.203   4.081   3.376
 4734TIP3    H222330   4.144   4.031   3.505
 4735TIP3   OH222331   4.187   4.224   3.267
 4735TIP3    H122332   4.250   4.284   3.312
 4735TIP3    H222333   4.226   4.227   3.176
 4736TIP3   OH222334   4.346   3.816   3.207
 4736TIP3    H122335   4.253   3.846   3.209
 4736TIP3    H222336   4.388   3.887   3.255
 4737TIP3   OH222337   4.287   4.403   3.472
 4737TIP3    H122338   4.200   4.410   3.518
 4737TIP3    H222339   4.273   4.462   3.394
 4738TIP3   OH222340   4.233   4.452   2.877
 4738TIP3    H122341   4.251   4.374   2.934
 4738TIP3    H222342   4.305   4.440   2.814
 4739TIP3   OH222343   4.064   4.403   3.631
 4739TIP3    H122344   4.090   4.428   3.723
 4739TIP3    H222345   4.069   4.307   3.637
 4740TIP3   OH222346   4.441   4.209   2.279
 4740TIP3    H122347   4.383   4.142   2.321
 4740TIP3    H222348   4.384   4.240   2.205
 4741TIP3   OH222349   3.769   4.093   2.983
 4741TIP3    H122350   3.800   4.175   3.025
 4741TIP3    H222351   3.833   4.083   2.911
 4742TIP3   OH222352   3.901   4.171   2.528
 4742TIP3    H122353   3.962   4.225   2.474
 4742TIP3    H222354   3.825   4.232   2.538
 4743TIP3   OH222355   4.001   4.218   2.856
 4743TIP3    H122356   3.963   4.264   2.779
 4743TIP3    H222357   4.044   4.140   2.817
 4744TIP3   OH222358   4.454   4.368   2.659
 4744TIP3    H122359   4.512   4.313   2.602
 4744TIP3    H222360   4.394   4.406   2.590
 4745TIP3   OH222361   4.315   4.415   2.436
 4745TIP3    H122362   4.230   4.393   2.395
 4745TIP3    H222363   4.376   4.386   2.366
 4746TIP3   OH222364   4.193   4.000   2.833
 4746TIP3    H122365   4.125   3.945   2.878
 4746TIP3    H222366   4.263   3.935   2.822
 4747TIP3   OH222367   4.017   4.109   3.625
 4747TIP3    H122368   3.940   4.159   3.593
 4747TIP3    H222369   3.975   4.056   3.694
 4748TIP3   OH222370   4.318   4.063   2.478
 4748TIP3    H122371   4.307   4.131   2.546
 4748TIP3    H222372   4.376   4.001   2.525
 4749TIP3   OH222373   4.050   4.370   2.340
 4749TIP3    H122374   4.005   4.435   2.400
 4749TIP3    H222375   3.995   4.374   2.261
 4750TIP3   OH222376   4.055   3.828   3.208
 4750TIP3    H122377   4.039   3.823   3.112
 4750TIP3    H222378   4.029   3.737   3.234
 4751TIP3   OH222379   4.368   4.316   3.772
 4751TIP3    H122380   4.342   4.245   3.710
 4751TIP3    H222381   4.429   4.366   3.716
 4752TIP3   OH222382   4.446   4.111   3.578
 4752TIP3    H122383   4.473   4.138   3.489
 4752TIP3    H222384   4.355   4.081   3.558
 4753TIP3   OH222385   4.138   4.397   3.888
 4753TIP3    H122386   4.106   4.316   3.934
 4753TIP3    H222387   4.233   4.377   3.887
 4754TIP3   OH222388   4.060   4.168   4.006
 4754TIP3    H122389   4.024   4.088   3.964
 4754TIP3    H222390   4.068   4.144   4.099
 4755TIP3   OH222391   3.783   4.193   3.832
 4755TIP3    H122392   3.851   4.263   3.832
 4755TIP3    H222393   3.723   4.229   3.898
 4756TIP3   OH222394   3.955   4.080   3.235
 4756TIP3    H122395   3.976   3.984   3.224
 4756TIP3    H222396   4.041   4.120   3.256
 4757TIP3   OH222397   3.783   4.387   3.275
 4757TIP3    H122398   3.853   4.385   3.207
 4757TIP3    H222399   3.803   4.470   3.324
 4758TIP3   OH222400   3.771   3.975   2.674
 4758TIP3    H122401   3.675   3.984   2.680
 4758TIP3    H222402   3.796   4.059   2.632
 4759TIP3   OH222403   3.856   3.847   3.529
 4759TIP3    H122404   3.781   3.794   3.559
 4759TIP3    H222405   3.811   3.912   3.471
 4760TIP3   OH222406   4.022   3.797   2.927
 4760TIP3    H122407   3.942   3.766   2.879
 4760TIP3    H222408   4.079   3.717   2.917
 4761TIP3   OH222409   3.964   3.796   2.492
 4761TIP3    H122410   4.011   3.868   2.444
 4761TIP3    H222411   3.906   3.849   2.549
 4762TIP3   OH222412   4.094   3.990   2.361
 4762TIP3    H122413   4.148   3.949   2.290
 4762TIP3    H222414   4.165   4.033   2.414
 4763TIP3   OH222415   4.038   3.860   3.885
 4763TIP3    H122416   4.031   3.767   3.912
 4763TIP3    H222417   4.122   3.863   3.839
 4764TIP3   OH222418   1.707   2.933   4.015
 4764TIP3    H122419   1.649   2.904   3.943
 4764TIP3    H222420   1.668   3.018   4.041
 4765TIP3   OH222421   3.455   2.240   4.120
 4765TIP3    H122422   3.476   2.169   4.183
 4765TIP3    H222423   3.426   2.189   4.043
 4766TIP3   OH222424   4.288   3.132   4.085
 4766TIP3    H122425   4.298   3.152   4.180
 4766TIP3    H222426   4.358   3.066   4.073
 4767TIP3   OH222427   1.067   0.814  12.155
 4767TIP3    H122428   1.059   0.764  12.239
 4767TIP3    H222429   1.156   0.793  12.122
 4768TIP3   OH222430   1.639   0.051  12.338
 4768TIP3    H122431   1.622   0.143  12.314
 4768TIP3    H222432   1.639   0.004  12.251
 4769TIP3   OH222433   1.716   1.463  12.099
 4769TIP3    H122434   1.740   1.544  12.149
 4769TIP3    H222435   1.803   1.418  12.102
 4770TIP3   OH222436   1.327   1.710  12.185
 4770TIP3    H122437   1.313   1.636  12.123
 4770TIP3    H222438   1.296   1.667  12.267
 4771TIP3   OH222439   1.437   0.933  12.073
 4771TIP3    H122440   1.446   0.930  11.976
 4771TIP3    H222441   1.522   0.977  12.098
 4772TIP3   OH222442   0.946   0.343  12.136
 4772TIP3    H122443   0.925   0.377  12.225
 4772TIP3    H222444   0.863   0.354  12.087
 4773TIP3   OH222445   0.694   0.362  12.020
 4773TIP3    H122446   0.668   0.343  12.112
 4773TIP3    H222447   0.619   0.417  11.992
 4774TIP3   OH222448   0.136   0.376  12.237
 4774TIP3    H122449   0.230   0.396  12.223
 4774TIP3    H222450   0.107   0.448  12.297
 4775TIP3   OH222451   0.548   0.583  12.181
 4775TIP3    H122452   0.453   0.588  12.155
 4775TIP3    H222453   0.585   0.650  12.120
 4776TIP3   OH222454   1.267   0.411  12.135
 4776TIP3    H122455   1.185   0.363  12.157
 4776TIP3    H222456   1.307   0.419  12.223
 4777TIP3   OH222457   1.007   1.265   0.037
 4777TIP3    H122458   0.935   1.331   0.028
 4777TIP3    H222459   0.960   1.193   0.083
 4778TIP3   OH222460   0.251   0.898  12.123
 4778TIP3    H122461   0.317   0.964  12.152
 4778TIP3    H222462   0.184   0.908  12.193
 4779TIP3   OH222463   1.360   1.327  12.156
 4779TIP3    H122464   1.393   1.244  12.191
 4779TIP3    H222465   1.266   1.307  12.137
 4780TIP3   OH222466   1.826   1.701  12.206
 4780TIP3    H122467   1.875   1.786  12.199
 4780TIP3    H222468   1.739   1.735  12.232
 4781TIP3   OH222469   0.833   1.362  12.085
 4781TIP3    H122470   0.815   1.267  12.081
 4781TIP3    H222471   0.790   1.384  12.171
 4782TIP3   OH222472   0.727   1.407   0.037
 4782TIP3    H122473   0.748   1.398   0.133
 4782TIP3    H222474   0.658   1.474   0.036
 4783TIP3   OH222475   0.583   0.337   0.012
 4783TIP3    H122476   0.554   0.427  -0.015
 4783TIP3    H222477   0.607   0.349   0.106
 4784TIP3   OH222478   0.403   1.374  12.169
 4784TIP3    H122479   0.361   1.321  12.241
 4784TIP3    H222480   0.483   1.321  12.152
 4785TIP3   OH222481   0.287   0.631  12.170
 4785TIP3    H122482   0.285   0.729  12.157
 4785TIP3    H222483   0.215   0.601  12.113
 4786TIP3   OH222484   1.088   1.537  12.078
 4786TIP3    H122485   1.027   1.469  12.112
 4786TIP3    H222486   1.029   1.579  12.013
 4787TIP3   OH222487   1.403   1.525  11.973
 4787TIP3    H122488   1.401   1.453  12.040
 4787TIP3    H222489   1.497   1.546  11.971
 4788TIP3   OH222490   0.596   1.185  12.127
 4788TIP3    H122491   0.561   1.095  12.146
 4788TIP3    H222492   0.572   1.194  12.033
 4789TIP3   OH222493   1.095   1.206  12.072
 4789TIP3    H122494   1.068   1.204  12.166
 4789TIP3    H222495   1.103   1.112  12.048
 4790TIP3   OH222496   0.576   0.925  12.189
 4790TIP3    H122497   0.582   0.891  12.280
 4790TIP3    H222498   0.662   0.898  12.155
 4791TIP3   OH222499   0.794   0.760  12.086
 4791TIP3    H122500   0.803   0.704  12.009
 4791TIP3    H222501   0.888   0.787  12.103
 4792TIP3   OH222502   1.671   1.056  12.141
 4792TIP3    H122503   1.710   1.031  12.054
 4792TIP3    H222504   1.681   1.152  12.137
 4793TIP3   OH222505   0.786   1.779  12.112
 4793TIP3    H122506   0.877   1.773  12.147
 4793TIP3    H222507   0.789   1.862  12.059
 4794TIP3   OH222508   0.147   1.348  12.095
 4794TIP3    H122509   0.244   1.361  12.105
 4794TIP3    H222510   0.140   1.252  12.084
 4795TIP3   OH222511   1.895   0.913  -0.031
 4795TIP3    H122512   1.813   0.953  -0.065
 4795TIP3    H222513   1.862   0.870   0.050
 4796TIP3   OH222514   1.682   0.592  12.084
 4796TIP3    H122515   1.715   0.588  11.993
 4796TIP3    H222516   1.637   0.506  12.092
 4797TIP3   OH222517   1.559   0.342  12.137
 4797TIP3    H122518   1.635   0.286  12.112
 4797TIP3    H222519   1.492   0.314  12.071
 4798TIP3   OH222520   1.823   0.239  12.116
 4798TIP3    H122521   1.843   0.189  12.034
 4798TIP3    H222522   1.888   0.312  12.113
 4799TIP3   OH222523   0.018   0.117  12.290
 4799TIP3    H122524   0.071   0.176  12.232
 4799TIP3    H222525   0.085   0.053  12.317
 4800TIP3   OH222526   0.401   0.249  12.112
 4800TIP3    H122527   0.427   0.181  12.047
 4800TIP3    H222528   0.464   0.237  12.185
 4801TIP3   OH222529   1.055   1.791  12.198
 4801TIP3    H122530   1.138   1.813  12.244
 4801TIP3    H222531   1.089   1.736  12.125
 4802TIP3   OH222532   0.271   1.702  12.067
 4802TIP3    H122533   0.267   1.715  12.162
 4802TIP3    H222534   0.352   1.650  12.058
 4803TIP3   OH222535   2.932   0.747  12.123
 4803TIP3    H122536   2.964   0.745  12.215
 4803TIP3    H222537   3.012   0.722  12.073
 4804TIP3   OH222538   3.529   0.062  12.347
 4804TIP3    H122539   3.458   0.114  12.308
 4804TIP3    H222540   3.561   0.009  12.270
 4805TIP3   OH222541   3.599   1.457  12.129
 4805TIP3    H122542   3.631   1.543  12.163
 4805TIP3    H222543   3.678   1.404  12.148
 4806TIP3   OH222544   3.234   1.716  12.182
 4806TIP3    H122545   3.242   1.651  12.109
 4806TIP3    H222546   3.184   1.662  12.245
 4807TIP3   OH222547   3.280   0.948  12.118
 4807TIP3    H122548   3.260   0.959  12.024
 4807TIP3    H222549   3.376   0.972  12.117
 4808TIP3   OH222550   2.848   0.353  12.131
 4808TIP3    H122551   2.806   0.391  12.210
 4808TIP3    H222552   2.774   0.351  12.067
 4809TIP3   OH222553   2.581   0.382  12.004
 4809TIP3    H122554   2.530   0.375  12.087
 4809TIP3    H222555   2.519   0.430  11.945
 4810TIP3   OH222556   2.006   0.430  12.183
 4810TIP3    H122557   2.086   0.387  12.219
 4810TIP3    H222558   1.956   0.447  12.264
 4811TIP3   OH222559   2.401   0.593  12.184
 4811TIP3    H122560   2.330   0.618  12.123
 4811TIP3    H222561   2.480   0.625  12.136
 4812TIP3   OH222562   3.104   0.433  12.165
 4812TIP3    H122563   3.012   0.403  12.146
 4812TIP3    H222564   3.097   0.446  12.262
 4813TIP3   OH222565   2.932   1.310   0.040
 4813TIP3    H122566   2.849   1.355   0.024
 4813TIP3    H222567   2.909   1.229   0.089
 4814TIP3   OH222568   2.072   0.908  12.057
 4814TIP3    H122569   2.139   0.941  12.119
 4814TIP3    H222570   1.995   0.916  12.118
 4815TIP3   OH222571   3.279   1.328  12.158
 4815TIP3    H122572   3.329   1.279  12.224
 4815TIP3    H222573   3.219   1.382  12.214
 4816TIP3   OH222574   3.697   1.701  12.200
 4816TIP3    H122575   3.770   1.763  12.177
 4816TIP3    H222576   3.622   1.765  12.196
 4817TIP3   OH222577   2.730   1.402  12.097
 4817TIP3    H122578   2.745   1.308  12.080
 4817TIP3    H222579   2.653   1.398  12.158
 4818TIP3   OH222580   2.534   1.401  -0.014
 4818TIP3    H122581   2.511   1.324   0.039
 4818TIP3    H222582   2.571   1.462   0.051
 4819TIP3   OH222583   2.489   0.360  -0.021
 4819TIP3    H122584   2.429   0.435  -0.037
 4819TIP3    H222585   2.433   0.283  -0.042
 4820TIP3   OH222586   2.288   1.344  12.073
 4820TIP3    H122587   2.376   1.357  12.112
 4820TIP3    H222588   2.265   1.256  12.109
 4821TIP3   OH222589   2.074   0.611  11.984
 4821TIP3    H122590   2.052   0.689  12.037
 4821TIP3    H222591   2.059   0.538  12.047
 4822TIP3   OH222592   2.986   1.542  12.083
 4822TIP3    H122593   2.931   1.471  12.122
 4822TIP3    H222594   2.928   1.569  12.010
 4823TIP3   OH222595   3.307   1.541  11.982
 4823TIP3    H122596   3.292   1.461  12.038
 4823TIP3    H222597   3.402   1.534  11.963
 4824TIP3   OH222598   2.517   1.176  12.113
 4824TIP3    H122599   2.466   1.097  12.142
 4824TIP3    H222600   2.476   1.195  12.028
 4825TIP3   OH222601   2.941   1.210  12.065
 4825TIP3    H122602   2.960   1.219  12.160
 4825TIP3    H222603   2.994   1.134  12.036
 4826TIP3   OH222604   2.450   0.941  12.199
 4826TIP3    H122605   2.415   0.884  12.268
 4826TIP3    H222606   2.525   0.889  12.164
 4827TIP3   OH222607   2.646   0.741  12.112
 4827TIP3    H122608   2.632   0.738  12.017
 4827TIP3    H222609   2.745   0.739  12.114
 4828TIP3   OH222610   3.545   1.014  12.133
 4828TIP3    H122611   3.587   0.972  12.055
 4828TIP3    H222612   3.576   1.105  12.124
 4829TIP3   OH222613   2.678   1.799  12.094
 4829TIP3    H122614   2.767   1.790  12.134
 4829TIP3    H222615   2.691   1.876  12.036
 4830TIP3   OH222616   1.959   1.312  12.138
 4830TIP3    H122617   2.050   1.342  12.156
 4830TIP3    H222618   1.976   1.245  12.068
 4831TIP3   OH222619   3.779   0.942  12.250
 4831TIP3    H122620   3.685   0.950  12.226
 4831TIP3    H222621   3.772   0.920  12.344
 4832TIP3   OH222622   3.523   0.608  12.096
 4832TIP3    H122623   3.572   0.593  12.014
 4832TIP3    H222624   3.490   0.518  12.117
 4833TIP3   OH222625   3.450   0.353  12.184
 4833TIP3    H122626   3.536   0.307  12.182
 4833TIP3    H222627   3.398   0.305  12.118
 4834TIP3   OH222628   3.706   0.253  12.115
 4834TIP3    H122629   3.737   0.196  12.041
 4834TIP3    H222630   3.781   0.317  12.123
 4835TIP3   OH222631   2.013   0.048  12.244
 4835TIP3    H122632   1.969   0.131  12.217
 4835TIP3    H222633   1.959   0.025  12.322
 4836TIP3   OH222634   2.261   0.242  12.080
 4836TIP3    H122635   2.283   0.173  12.014
 4836TIP3    H222636   2.262   0.191  12.164
 4837TIP3   OH222637   2.938   1.794  12.201
 4837TIP3    H122638   3.028   1.812  12.236
 4837TIP3    H222639   2.955   1.730  12.128
 4838TIP3   OH222640   2.196   1.838  12.088
 4838TIP3    H122641   2.158   1.800  12.168
 4838TIP3    H222642   2.280   1.790  12.077
 4839TIP3   OH222643   4.443   0.391  12.007
 4839TIP3    H122644   4.427   0.367  12.101
 4839TIP3    H222645   4.378   0.462  11.999
 4840TIP3   OH222646   3.877   0.448  12.200
 4840TIP3    H122647   3.958   0.403  12.233
 4840TIP3    H222648   3.845   0.485  12.283
 4841TIP3   OH222649   4.324   0.703  12.176
 4841TIP3    H122650   4.231   0.673  12.185
 4841TIP3    H222651   4.326   0.706  12.079
 4842TIP3   OH222652   3.989   0.901  12.070
 4842TIP3    H122653   4.053   0.944  12.130
 4842TIP3    H222654   3.913   0.906  12.131
 4843TIP3   OH222655   4.454   1.367   0.072
 4843TIP3    H122656   4.549   1.380   0.053
 4843TIP3    H222657   4.412   1.410  -0.004
 4844TIP3   OH222658   4.343   0.354  -0.023
 4844TIP3    H122659   4.360   0.414   0.051
 4844TIP3    H222660   4.421   0.294  -0.020
 4845TIP3   OH222661   4.184   1.382  12.203
 4845TIP3    H122662   4.191   1.307  12.265
 4845TIP3    H222663   4.208   1.336  12.120
 4846TIP3   OH222664   4.062   0.644  12.140
 4846TIP3    H122665   4.038   0.734  12.112
 4846TIP3    H222666   3.978   0.596  12.130
 4847TIP3   OH222667   4.312   1.173  12.056
 4847TIP3    H122668   4.291   1.110  12.128
 4847TIP3    H222669   4.407   1.186  12.064
 4848TIP3   OH222670   4.415   0.955  12.248
 4848TIP3    H122671   4.349   0.969  12.318
 4848TIP3    H222672   4.398   0.864  12.219
 4849TIP3   OH222673   3.878   1.330  12.165
 4849TIP3    H122674   3.971   1.322  12.191
 4849TIP3    H222675   3.879   1.272  12.085
 4850TIP3   OH222676   3.870   0.043  12.237
 4850TIP3    H122677   3.909   0.118  12.187
 4850TIP3    H222678   3.878   0.078  12.327
 4851TIP3   OH222679   4.072   0.219  12.109
 4851TIP3    H122680   4.123   0.201  12.029
 4851TIP3    H222681   4.144   0.234  12.173
 4852TIP3   OH222682   4.108   1.771  12.088
 4852TIP3    H122683   4.069   1.770  12.176
 4852TIP3    H222684   4.188   1.716  12.094
 4853TIP3   OH222685   1.079   2.674  12.139
 4853TIP3    H122686   1.058   2.635  12.225
 4853TIP3    H222687   1.124   2.601  12.093
 4854TIP3   OH222688   1.637   1.935  12.219
 4854TIP3    H122689   1.567   1.935  12.153
 4854TIP3    H222690   1.709   1.977  12.167
 4855TIP3   OH222691   1.703   3.330  12.091
 4855TIP3    H122692   1.737   3.422  12.084
 4855TIP3    H222693   1.787   3.285  12.116
 4856TIP3   OH222694   1.378   3.593  12.157
 4856TIP3    H122695   1.382   3.523  12.089
 4856TIP3    H222696   1.317   3.549  12.219
 4857TIP3   OH222697   1.419   2.802  12.062
 4857TIP3    H122698   1.439   2.786  11.969
 4857TIP3    H222699   1.502   2.846  12.094
 4858TIP3   OH222700   0.994   2.209  12.155
 4858TIP3    H122701   0.934   2.249  12.221
 4858TIP3    H222702   0.937   2.151  12.103
 4859TIP3   OH222703   0.677   2.252  12.005
 4859TIP3    H122704   0.663   2.205  12.089
 4859TIP3    H222705   0.589   2.290  11.993
 4860TIP3   OH222706   0.134   2.234  12.246
 4860TIP3    H122707   0.227   2.231  12.215
 4860TIP3    H222708   0.104   2.320  12.213
 4861TIP3   OH222709   0.506   2.498  12.170
 4861TIP3    H122710   0.420   2.497  12.122
 4861TIP3    H222711   0.552   2.571  12.127
 4862TIP3   OH222712   1.276   2.281  12.108
 4862TIP3    H122713   1.183   2.266  12.135
 4862TIP3    H222714   1.320   2.285  12.194
 4863TIP3   OH222715   1.010   3.175   0.057
 4863TIP3    H122716   0.963   3.254   0.023
 4863TIP3    H222717   0.937   3.111   0.072
 4864TIP3   OH222718   0.252   2.809  12.124
 4864TIP3    H122719   0.300   2.884  12.164
 4864TIP3    H222720   0.214   2.769  12.206
 4865TIP3   OH222721   1.346   3.211  12.166
 4865TIP3    H122722   1.378   3.128  12.202
 4865TIP3    H222723   1.261   3.184  12.125
 4866TIP3   OH222724   1.802   3.592  12.131
 4866TIP3    H122725   1.867   3.663  12.122
 4866TIP3    H222726   1.729   3.644  12.170
 4867TIP3   OH222727   0.874   3.269  12.130
 4867TIP3    H122728   0.860   3.217  12.050
 4867TIP3    H222729   0.783   3.277  12.167
 4868TIP3   OH222730   0.644   3.277  -0.025
 4868TIP3    H122731   0.687   3.210   0.031
 4868TIP3    H222732   0.648   3.355   0.034
 4869TIP3   OH222733   0.599   2.183   0.027
 4869TIP3    H122734   0.600   2.252   0.096
 4869TIP3    H222735   0.633   2.105   0.074
 4870TIP3   OH222736   0.377   3.258  12.134
 4870TIP3    H122737   0.353   3.249  12.228
 4870TIP3    H222738   0.471   3.230  12.142
 4871TIP3   OH222739   0.236   2.544  12.090
 4871TIP3    H122740   0.254   2.641  12.083
 4871TIP3    H222741   0.151   2.533  12.047
 4872TIP3   OH222742   1.112   3.438  12.085
 4872TIP3    H122743   1.053   3.370  12.122
 4872TIP3    H222744   1.055   3.476  12.016
 4873TIP3   OH222745   1.412   3.395  11.971
 4873TIP3    H122746   1.389   3.339  12.049
 4873TIP3    H222747   1.508   3.382  11.966
 4874TIP3   OH222748   0.574   3.038  12.113
 4874TIP3    H122749   0.568   2.947  12.150
 4874TIP3    H222750   0.491   3.036  12.065
 4875TIP3   OH222751   1.087   3.094  12.077
 4875TIP3    H122752   1.063   3.128  12.165
 4875TIP3    H222753   1.064   3.000  12.085
 4876TIP3   OH222754   0.576   2.792  12.209
 4876TIP3    H122755   0.565   2.729  12.281
 4876TIP3    H222756   0.671   2.778  12.186
 4877TIP3   OH222757   0.810   2.700  12.096
 4877TIP3    H122758   0.774   2.661  12.016
 4877TIP3    H222759   0.905   2.706  12.077
 4878TIP3   OH222760   1.664   2.897  12.142
 4878TIP3    H122761   1.703   2.859  12.061
 4878TIP3    H222762   1.681   2.991  12.127
 4879TIP3   OH222763   0.781   3.673  12.103
 4879TIP3    H122764   0.874   3.674  12.133
 4879TIP3    H222765   0.773   3.758  12.056
 4880TIP3   OH222766   0.096   3.176  12.121
 4880TIP3    H122767   0.173   3.236  12.125
 4880TIP3    H222768   0.142   3.091  12.114
 4881TIP3   OH222769   1.917   2.799  12.235
 4881TIP3    H122770   1.823   2.817  12.219
 4881TIP3    H222771   1.912   2.736  12.310
 4882TIP3   OH222772   1.680   2.503  12.099
 4882TIP3    H122773   1.708   2.532  12.012
 4882TIP3    H222774   1.653   2.409  12.085
 4883TIP3   OH222775   1.590   2.245  12.116
 4883TIP3    H122776   1.664   2.184  12.093
 4883TIP3    H222777   1.513   2.200  12.077
 4884TIP3   OH222778   1.796   2.085  12.062
 4884TIP3    H122779   1.821   2.019  11.992
 4884TIP3    H222780   1.884   2.104  12.101
 4885TIP3   OH222781   0.027   1.956  12.277
 4885TIP3    H122782   0.056   2.031  12.222
 4885TIP3    H222783   0.061   1.982  12.364
 4886TIP3   OH222784   0.398   2.158  12.119
 4886TIP3    H122785   0.409   2.084  12.057
 4886TIP3    H222786   0.465   2.144  12.188
 4887TIP3   OH222787   1.055   3.685  12.200
 4887TIP3    H122788   1.134   3.707  12.252
 4887TIP3    H222789   1.085   3.611  12.144
 4888TIP3   OH222790   0.291   3.617  12.064
 4888TIP3    H122791   0.277   3.617  12.160
 4888TIP3    H222792   0.362   3.552  12.053
 4889TIP3   OH222793   2.893   2.629  12.107
 4889TIP3    H122794   2.927   2.627  12.198
 4889TIP3    H222795   2.967   2.592  12.056
 4890TIP3   OH222796   3.525   1.918  12.211
 4890TIP3    H122797   3.443   1.943  12.167
 4890TIP3    H222798   3.592   1.972  12.163
 4891TIP3   OH222799   3.585   3.304  12.125
 4891TIP3    H122800   3.609   3.394  12.156
 4891TIP3    H222801   3.672   3.260  12.135
 4892TIP3   OH222802   3.267   3.573  12.192
 4892TIP3    H122803   3.249   3.511  12.120
 4892TIP3    H222804   3.199   3.545  12.256
 4893TIP3   OH222805   3.274   2.792  12.102
 4893TIP3    H122806   3.275   2.781  12.006
 4893TIP3    H222807   3.369   2.811  12.122
 4894TIP3   OH222808   2.876   2.206  12.152
 4894TIP3    H122809   2.814   2.242  12.218
 4894TIP3    H222810   2.828   2.131  12.112
 4895TIP3   OH222811   2.570   2.277  12.034
 4895TIP3    H122812   2.577   2.243  12.125
 4895TIP3    H222813   2.475   2.260  12.020
 4896TIP3   OH222814   1.997   2.255  12.211
 4896TIP3    H122815   2.093   2.264  12.203
 4896TIP3    H222816   1.978   2.325  12.274
 4897TIP3   OH222817   2.405   2.492  12.218
 4897TIP3    H122818   2.311   2.515  12.197
 4897TIP3    H222819   2.436   2.459  12.133
 4898TIP3   OH222820   3.233   2.299  12.085
 4898TIP3    H122821   3.140   2.285  12.061
 4898TIP3    H222822   3.221   2.300  12.183
 4899TIP3   OH222823   2.917   3.181   0.088
 4899TIP3    H122824   2.836   3.215   0.046
 4899TIP3    H222825   2.896   3.088   0.110
 4900TIP3   OH222826   2.130   2.823  12.071
 4900TIP3    H122827   2.179   2.888  12.123
 4900TIP3    H222828   2.050   2.818  12.128
 4901TIP3   OH222829   3.259   3.185  12.168
 4901TIP3    H122830   3.276   3.118  12.236
 4901TIP3    H222831   3.166   3.168  12.145
 4902TIP3   OH222832   3.706   3.584  12.198
 4902TIP3    H122833   3.772   3.650  12.172
 4902TIP3    H222834   3.628   3.644  12.203
 4903TIP3   OH222835   2.740   3.289  12.151
 4903TIP3    H122836   2.729   3.295  12.055
 4903TIP3    H222837   2.659   3.239  12.173
 4904TIP3   OH222838   2.531   3.281   0.044
 4904TIP3    H122839   2.584   3.224   0.103
 4904TIP3    H222840   2.601   3.338   0.007
 4905TIP3   OH222841   2.489   2.197   0.036
 4905TIP3    H122842   2.481   2.242   0.122
 4905TIP3    H222843   2.482   2.104   0.065
 4906TIP3   OH222844   2.276   3.247  12.069
 4906TIP3    H122845   2.319   3.290  12.145
 4906TIP3    H222846   2.299   3.154  12.087
 4907TIP3   OH222847   2.142   2.532  12.140
 4907TIP3    H122848   2.151   2.625  12.111
 4907TIP3    H222849   2.050   2.516  12.118
 4908TIP3   OH222850   2.972   3.440  12.097
 4908TIP3    H122851   2.906   3.393  12.151
 4908TIP3    H222852   2.923   3.447  12.013
 4909TIP3   OH222853   3.304   3.399  11.977
 4909TIP3    H122854   3.297   3.336  12.051
 4909TIP3    H222855   3.396   3.385  11.950
 4910TIP3   OH222856   2.487   3.070  12.132
 4910TIP3    H122857   2.453   2.989  12.178
 4910TIP3    H222858   2.481   3.043  12.040
 4911TIP3   OH222859   2.980   3.098  12.090
 4911TIP3    H122860   2.932   3.105  12.174
 4911TIP3    H222861   2.968   3.005  12.064
 4912TIP3   OH222862   2.466   2.844  12.265
 4912TIP3    H122863   2.414   2.763  12.270
 4912TIP3    H222864   2.544   2.815  12.211
 4913TIP3   OH222865   2.638   2.749  12.079
 4913TIP3    H122866   2.611   2.667  12.037
 4913TIP3    H222867   2.731   2.725  12.099
 4914TIP3   OH222868   3.534   2.877  12.164
 4914TIP3    H122869   3.596   2.858  12.092
 4914TIP3    H222870   3.515   2.970  12.143
 4915TIP3   OH222871   2.682   3.659  12.095
 4915TIP3    H122872   2.769   3.666  12.140
 4915TIP3    H222873   2.682   3.741  12.042
 4916TIP3   OH222874   1.957   3.217  12.145
 4916TIP3    H122875   2.051   3.206  12.167
 4916TIP3    H222876   1.952   3.148  12.075
 4917TIP3   OH222877   3.744   2.801   0.027
 4917TIP3    H122878   3.658   2.813  -0.018
 4917TIP3    H222879   3.731   2.718   0.077
 4918TIP3   OH222880   3.613   2.504  12.117
 4918TIP3    H122881   3.600   2.552  12.034
 4918TIP3    H222882   3.609   2.411  12.090
 4919TIP3   OH222883   3.484   2.262  12.185
 4919TIP3    H122884   3.549   2.206  12.135
 4919TIP3    H222885   3.404   2.253  12.130
 4920TIP3   OH222886   3.670   2.112  12.088
 4920TIP3    H122887   3.699   2.065  12.007
 4920TIP3    H222888   3.756   2.130  12.130
 4921TIP3   OH222889   1.953   1.953  12.234
 4921TIP3    H122890   2.040   1.996  12.230
 4921TIP3    H222891   1.946   1.943  12.330
 4922TIP3   OH222892   2.282   2.160  12.081
 4922TIP3    H122893   2.254   2.070  12.054
 4922TIP3    H222894   2.313   2.144  12.171
 4923TIP3   OH222895   2.942   3.688  12.195
 4923TIP3    H122896   3.031   3.705  12.232
 4923TIP3    H222897   2.957   3.614  12.131
 4924TIP3   OH222898   2.210   3.651  12.105
 4924TIP3    H122899   2.181   3.632  12.195
 4924TIP3    H222900   2.288   3.595  12.096
 4925TIP3   OH222901   4.431   2.280  12.022
 4925TIP3    H122902   4.402   2.261  12.113
 4925TIP3    H222903   4.354   2.326  11.987
 4926TIP3   OH222904   3.854   2.280  12.212
 4926TIP3    H122905   3.949   2.256  12.212
 4926TIP3    H222906   3.853   2.350  12.280
 4927TIP3   OH222907   4.303   2.549  12.181
 4927TIP3    H122908   4.209   2.522  12.169
 4927TIP3    H222909   4.321   2.571  12.088
 4928TIP3   OH222910   3.925   2.769  12.086
 4928TIP3    H122911   4.003   2.770  12.144
 4928TIP3    H222912   3.858   2.789  12.154
 4929TIP3   OH222913   4.468   3.241   0.058
 4929TIP3    H122914   4.491   3.155   0.099
 4929TIP3    H222915   4.491   3.225  -0.036
 4930TIP3   OH222916   4.331   2.214   0.013
 4930TIP3    H122917   4.356   2.296   0.059
 4930TIP3    H222918   4.407   2.159   0.039
 4931TIP3   OH222919   4.101   3.264  12.192
 4931TIP3    H122920   4.098   3.243  12.287
 4931TIP3    H222921   4.142   3.184  12.156
 4932TIP3   OH222922   4.024   2.510  12.128
 4932TIP3    H122923   3.995   2.598  12.100
 4932TIP3    H222924   3.947   2.455  12.104
 4933TIP3   OH222925   4.322   3.010  12.105
 4933TIP3    H122926   4.306   3.025  12.200
 4933TIP3    H222927   4.386   3.079  12.081
 4934TIP3   OH222928   4.428   2.816  12.289
 4934TIP3    H122929   4.370   2.741  12.307
 4934TIP3    H222930   4.388   2.853  12.208
 4935TIP3   OH222931   3.826   3.183  12.178
 4935TIP3    H122932   3.915   3.224  12.184
 4935TIP3    H222933   3.838   3.132  12.095
 4936TIP3   OH222934   3.854   1.928  12.207
 4936TIP3    H122935   3.914   2.000  12.180
 4936TIP3    H222936   3.862   1.931  12.304
 4937TIP3   OH222937   4.074   2.119  12.102
 4937TIP3    H122938   4.103   2.052  12.038
 4937TIP3    H222939   4.142   2.113  12.171
 4938TIP3   OH222940   4.110   3.706  12.096
 4938TIP3    H122941   4.033   3.689  12.153
 4938TIP3    H222942   4.167   3.628  12.110
 4939TIP3   OH222943   1.631   3.776  12.223
 4939TIP3    H122944   1.535   3.783  12.206
 4939TIP3    H222945   1.672   3.853  12.178
 4940TIP3   OH222946   0.983   4.071  12.140
 4940TIP3    H122947   0.941   4.078  12.228
 4940TIP3    H222948   0.973   3.978  12.116
 4941TIP3   OH222949   0.656   4.150  12.032
 4941TIP3    H122950   0.673   4.118  12.124
 4941TIP3    H222951   0.561   4.131  12.028
 4942TIP3   OH222952   0.088   4.114  12.189
 4942TIP3    H122953   0.171   4.150  12.153
 4942TIP3    H222954   0.072   4.178  12.262
 4943TIP3   OH222955   0.518   4.413  12.145
 4943TIP3    H122956   0.427   4.414  12.108
 4943TIP3    H222957   0.552   4.332  12.102
 4944TIP3   OH222958   1.293   4.130  12.119
 4944TIP3    H122959   1.203   4.109  12.088
 4944TIP3    H222960   1.273   4.147  12.214
 4945TIP3   OH222961   0.605   4.070   0.010
 4945TIP3    H122962   0.583   4.138   0.075
 4945TIP3    H222963   0.619   3.991   0.065
 4946TIP3   OH222964   0.246   4.364  12.089
 4946TIP3    H122965   0.239   4.444  12.144
 4946TIP3    H222966   0.160   4.365  12.044
 4947TIP3   OH222967   1.679   4.390  12.116
 4947TIP3    H122968   1.703   4.433  12.033
 4947TIP3    H222969   1.658   4.298  12.090
 4948TIP3   OH222970   1.563   4.148  12.149
 4948TIP3    H122971   1.616   4.074  12.112
 4948TIP3    H222972   1.472   4.129  12.119
 4949TIP3   OH222973   1.766   4.008  12.093
 4949TIP3    H122974   1.808   3.952  12.023
 4949TIP3    H222975   1.845   4.038  12.142
 4950TIP3   OH222976   0.001   3.838  12.243
 4950TIP3    H122977  -0.009   3.865  12.151
 4950TIP3    H222978   0.080   3.889  12.266
 4951TIP3   OH222979   0.385   4.046  12.095
 4951TIP3    H122980   0.377   3.960  12.053
 4951TIP3    H222981   0.399   4.022  12.189
 4952TIP3   OH222982   3.532   3.795  12.229
 4952TIP3    H122983   3.438   3.795  12.203
 4952TIP3    H222984   3.578   3.854  12.166
 4953TIP3   OH222985   2.872   4.078  12.146
 4953TIP3    H122986   2.817   4.081  12.227
 4953TIP3    H222987   2.830   4.007  12.095
 4954TIP3   OH222988   2.553   4.150  12.045
 4954TIP3    H122989   2.564   4.113  12.135
 4954TIP3    H222990   2.459   4.130  12.032
 4955TIP3   OH222991   1.951   4.154  12.231
 4955TIP3    H122992   2.045   4.144  12.259
 4955TIP3    H222993   1.930   4.244  12.261
 4956TIP3   OH222994   2.380   4.407  12.162
 4956TIP3    H122995   2.291   4.382  12.132
 4956TIP3    H222996   2.436   4.346  12.112
 4957TIP3   OH222997   3.206   4.125  12.116
 4957TIP3    H122998   3.109   4.110  12.113
 4957TIP3    H222999   3.215   4.148  12.210
 4958TIP3   OH223000   2.478   4.065   0.018
 4958TIP3    H123001   2.494   4.145   0.071
 4958TIP3    H223002   2.462   3.998   0.087
 4959TIP3   OH223003   2.135   4.354  12.063
 4959TIP3    H123004   2.096   4.435  12.099
 4959TIP3    H223005   2.062   4.291  12.068
 4960TIP3   OH223006   3.564   4.390  12.121
 4960TIP3    H123007   3.605   4.441  12.049
 4960TIP3    H223008   3.560   4.299  12.087
 4961TIP3   OH223009   3.467   4.132  12.152
 4961TIP3    H123010   3.535   4.075  12.110
 4961TIP3    H223011   3.382   4.102  12.112
 4962TIP3   OH223012   3.669   3.989  12.082
 4962TIP3    H123013   3.688   3.935  12.002
 4962TIP3    H223014   3.757   3.991  12.124
 4963TIP3   OH223015   1.919   3.833  12.255
 4963TIP3    H123016   2.009   3.851  12.224
 4963TIP3    H223017   1.932   3.761  12.319
 4964TIP3   OH223018   2.256   4.016  12.089
 4964TIP3    H123019   2.255   3.926  12.053
 4964TIP3    H223020   2.249   4.001  12.185
 4965TIP3   OH223021   4.405   4.276  12.060
 4965TIP3    H123022   4.458   4.204  12.100
 4965TIP3    H223023   4.340   4.225  12.008
 4966TIP3   OH223024   3.838   4.168  12.225
 4966TIP3    H123025   3.934   4.163  12.237
 4966TIP3    H223026   3.815   4.252  12.269
 4967TIP3   OH223027   4.226   4.450  12.208
 4967TIP3    H123028   4.185   4.409  12.129
 4967TIP3    H223029   4.316   4.457  12.171
 4968TIP3   OH223030   4.270   4.062   0.005
 4968TIP3    H123031   4.297   4.146   0.044
 4968TIP3    H223032   4.339   4.000   0.035
 4969TIP3   OH223033   4.014   4.376  12.042
 4969TIP3    H123034   3.983   4.460  12.078
 4969TIP3    H223035   3.935   4.320  12.053
 4970TIP3   OH223036   3.840   3.836  12.237
 4970TIP3    H123037   3.915   3.896  12.254
 4970TIP3    H223038   3.826   3.801  12.326
 4971TIP3   OH223039   4.096   4.014  12.086
 4971TIP3    H123040   4.112   3.919  12.070
 4971TIP3    H223041   4.147   4.029  12.168
 4972TIP3   OH223042   0.503   1.590   0.028
 4972TIP3    H123043   0.482   1.522  -0.039
 4972TIP3    H223044   0.425   1.578   0.085
 4973TIP3   OH223045   1.605   0.650   0.039
 4973TIP3    H123046   1.643   0.651  -0.053
 4973TIP3    H223047   1.552   0.568   0.033
 4974TIP3   OH223048   1.012   0.696   0.116
 4974TIP3    H123049   0.974   0.606   0.115
 4974TIP3    H223050   1.090   0.686   0.176
 4975TIP3   OH223051   1.578   1.882   0.186
 4975TIP3    H123052   1.594   1.906   0.092
 4975TIP3    H223053   1.669   1.874   0.219
 4976TIP3   OH223054   0.321   1.128  -0.006
 4976TIP3    H123055   0.393   1.103   0.057
 4976TIP3    H223056   0.258   1.166   0.056
 4977TIP3   OH223057   0.785   0.829   0.056
 4977TIP3    H123058   0.779   0.780  -0.029
 4977TIP3    H223059   0.873   0.801   0.087
 4978TIP3   OH223060   0.179   1.710   0.044
 4978TIP3    H123061   0.119   1.711   0.122
 4978TIP3    H223062   0.121   1.753  -0.022
 4979TIP3   OH223063   0.614   1.657   0.267
 4979TIP3    H123064   0.681   1.587   0.267
 4979TIP3    H223065   0.592   1.657   0.172
 4980TIP3   OH223066   1.263   1.520   0.128
 4980TIP3    H123067   1.249   1.425   0.135
 4980TIP3    H223068   1.320   1.538   0.206
 4981TIP3   OH223069   0.102   1.141   0.195
 4981TIP3    H123070   0.126   1.054   0.158
 4981TIP3    H223071   0.038   1.177   0.130
 4982TIP3   OH223072   0.772   1.110   0.062
 4982TIP3    H123073   0.725   1.131  -0.020
 4982TIP3    H223074   0.775   1.011   0.064
 4983TIP3   OH223075   0.183   0.836   0.113
 4983TIP3    H123076   0.155   0.744   0.098
 4983TIP3    H223077   0.234   0.826   0.195
 4984TIP3   OH223078   1.125   0.994   0.215
 4984TIP3    H123079   1.186   0.985   0.141
 4984TIP3    H223080   1.158   0.928   0.278
 4985TIP3   OH223081   1.232   0.654   0.271
 4985TIP3    H123082   1.217   0.558   0.258
 4985TIP3    H223083   1.313   0.666   0.220
 4986TIP3   OH223084   1.518   0.912   0.056
 4986TIP3    H123085   1.468   0.915  -0.027
 4986TIP3    H223086   1.527   0.815   0.064
 4987TIP3   OH223087   0.504   0.584   0.170
 4987TIP3    H123088   0.419   0.536   0.170
 4987TIP3    H223089   0.508   0.609   0.075
 4988TIP3   OH223090   0.896   0.454   0.089
 4988TIP3    H123091   0.898   0.402   0.172
 4988TIP3    H223092   0.803   0.483   0.090
 4989TIP3   OH223093   1.173   0.424   0.101
 4989TIP3    H123094   1.081   0.429   0.069
 4989TIP3    H223095   1.176   0.340   0.148
 4990TIP3   OH223096   1.395   0.341   0.241
 4990TIP3    H123097   1.369   0.246   0.232
 4990TIP3    H223098   1.335   0.367   0.315
 4991TIP3   OH223099   0.307   0.381   0.175
 4991TIP3    H123100   0.303   0.299   0.122
 4991TIP3    H223101   0.307   0.346   0.266
 4992TIP3   OH223102   0.775   4.499  12.339
 4992TIP3    H123103   0.872   4.504  12.323
 4992TIP3    H223104   0.738   4.475  12.252
 4993TIP3   OH223105   0.832   0.212   0.274
 4993TIP3    H123106   0.819   0.136   0.215
 4993TIP3    H223107   0.747   0.261   0.270
 4994TIP3   OH223108   1.569   1.274   0.247
 4994TIP3    H123109   1.502   1.297   0.313
 4994TIP3    H223110   1.645   1.327   0.278
 4995TIP3   OH223111   1.817   0.753   0.183
 4995TIP3    H123112   1.737   0.728   0.133
 4995TIP3    H223113   1.867   0.667   0.186
 4996TIP3   OH223114   0.061   0.504   0.170
 4996TIP3    H123115   0.150   0.467   0.189
 4996TIP3    H223116   0.004   0.457   0.236
 4997TIP3   OH223117   1.890   0.027   0.198
 4997TIP3    H123118   1.803  -0.015   0.191
 4997TIP3    H223119   1.866   0.120   0.182
 4998TIP3   OH223120   1.814   0.316   0.123
 4998TIP3    H123121   1.747   0.301   0.194
 4998TIP3    H223122   1.763   0.306   0.040
 4999TIP3   OH223123   0.259   1.433   0.103
 4999TIP3    H123124   0.233   1.516   0.060
 4999TIP3    H223125   0.265   1.458   0.196
 5000TIP3   OH223126   0.902   1.654   0.072
 5000TIP3    H123127   0.951   1.614   0.145
 5000TIP3    H223128   0.973   1.692   0.016
 5001TIP3   OH223129   0.320   0.051   0.047
 5001TIP3    H123130   0.278  -0.019   0.099
 5001TIP3    H223131   0.393   0.081   0.105
 5002TIP3   OH223132   0.515   0.102   0.246
 5002TIP3    H123133   0.584   0.098   0.178
 5002TIP3    H223134   0.516   0.011   0.283
 5003TIP3   OH223135   1.353   0.077   0.191
 5003TIP3    H123136   1.306   0.003   0.234
 5003TIP3    H223137   1.436   0.035   0.165
 5004TIP3   OH223138   1.594   1.601   0.087
 5004TIP3    H123139   1.534   1.531   0.058
 5004TIP3    H223140   1.537   1.679   0.089
 5005TIP3   OH223141   2.354   1.619  12.334
 5005TIP3    H123142   2.350   1.575  12.248
 5005TIP3    H223143   2.291   1.563  12.385
 5006TIP3   OH223144   3.475   0.662   0.070
 5006TIP3    H123145   3.497   0.674  -0.025
 5006TIP3    H223146   3.446   0.570   0.070
 5007TIP3   OH223147   2.956   0.712   0.091
 5007TIP3    H123148   2.910   0.627   0.072
 5007TIP3    H223149   3.008   0.686   0.170
 5008TIP3   OH223150   3.465   1.903   0.180
 5008TIP3    H123151   3.486   1.918   0.086
 5008TIP3    H223152   3.552   1.887   0.219
 5009TIP3   OH223153   2.229   1.160  -0.017
 5009TIP3    H123154   2.305   1.146   0.042
 5009TIP3    H223155   2.158   1.148   0.047
 5010TIP3   OH223156   2.733   0.854   0.052
 5010TIP3    H123157   2.691   0.791  -0.010
 5010TIP3    H223158   2.824   0.820   0.054
 5011TIP3   OH223159   2.000   1.753   0.127
 5011TIP3    H123160   2.057   1.687   0.171
 5011TIP3    H223161   1.945   1.699   0.067
 5012TIP3   OH223162   2.489   1.645   0.274
 5012TIP3    H123163   2.573   1.598   0.276
 5012TIP3    H223164   2.467   1.645   0.179
 5013TIP3   OH223165   3.155   1.479   0.075
 5013TIP3    H123166   3.089   1.408   0.090
 5013TIP3    H223167   3.164   1.511   0.167
 5014TIP3   OH223168   2.020   1.191   0.210
 5014TIP3    H123169   2.012   1.098   0.242
 5014TIP3    H223170   1.942   1.196   0.152
 5015TIP3   OH223171   2.662   1.113   0.057
 5015TIP3    H123172   2.623   1.122  -0.033
 5015TIP3    H223173   2.678   1.016   0.063
 5016TIP3   OH223174   2.135   0.831   0.104
 5016TIP3    H123175   2.048   0.831   0.062
 5016TIP3    H223176   2.112   0.870   0.191
 5017TIP3   OH223177   2.978   1.026   0.177
 5017TIP3    H123178   3.050   0.977   0.135
 5017TIP3    H223179   2.928   0.957   0.223
 5018TIP3   OH223180   3.116   0.655   0.299
 5018TIP3    H123181   3.094   0.560   0.290
 5018TIP3    H223182   3.199   0.658   0.249
 5019TIP3   OH223183   3.357   0.914   0.084
 5019TIP3    H123184   3.321   0.922  -0.008
 5019TIP3    H223185   3.374   0.818   0.088
 5020TIP3   OH223186   2.379   0.598   0.178
 5020TIP3    H123187   2.286   0.577   0.163
 5020TIP3    H223188   2.407   0.613   0.086
 5021TIP3   OH223189   2.742   0.491   0.047
 5021TIP3    H123190   2.736   0.441   0.131
 5021TIP3    H223191   2.654   0.472   0.009
 5022TIP3   OH223192   3.060   0.427   0.140
 5022TIP3    H123193   3.009   0.354   0.178
 5022TIP3    H223194   3.152   0.398   0.160
 5023TIP3   OH223195   3.267   0.338   0.270
 5023TIP3    H123196   3.256   0.241   0.257
 5023TIP3    H223197   3.204   0.355   0.344
 5024TIP3   OH223198   2.166   0.351   0.144
 5024TIP3    H123199   2.227   0.285   0.104
 5024TIP3    H223200   2.159   0.316   0.236
 5025TIP3   OH223201   2.661   4.477   0.053
 5025TIP3    H123202   2.757   4.492   0.066
 5025TIP3    H223203   2.650   4.487  -0.043
 5026TIP3   OH223204   2.704   0.226   0.270
 5026TIP3    H123205   2.691   0.141   0.226
 5026TIP3    H223206   2.615   0.270   0.264
 5027TIP3   OH223207   3.464   1.262   0.306
 5027TIP3    H123208   3.401   1.294   0.373
 5027TIP3    H223209   3.537   1.327   0.313
 5028TIP3   OH223210   3.701   0.748   0.204
 5028TIP3    H123211   3.617   0.731   0.156
 5028TIP3    H223212   3.747   0.661   0.192
 5029TIP3   OH223213   1.960   0.529   0.211
 5029TIP3    H123214   2.051   0.492   0.206
 5029TIP3    H223215   1.910   0.447   0.190
 5030TIP3   OH223216   3.746  -0.002   0.274
 5030TIP3    H123217   3.766  -0.098   0.264
 5030TIP3    H223218   3.690   0.019   0.197
 5031TIP3   OH223219   3.728   0.264   0.118
 5031TIP3    H123220   3.638   0.259   0.152
 5031TIP3    H223221   3.716   0.227   0.029
 5032TIP3   OH223222   2.166   1.429   0.143
 5032TIP3    H123223   2.075   1.413   0.111
 5032TIP3    H223224   2.191   1.342   0.180
 5033TIP3   OH223225   2.777   1.654   0.074
 5033TIP3    H123226   2.827   1.620   0.150
 5033TIP3    H223227   2.849   1.696   0.021
 5034TIP3   OH223228   2.279   0.141   0.029
 5034TIP3    H123229   2.201   0.083   0.022
 5034TIP3    H223230   2.311   0.119   0.120
 5035TIP3   OH223231   2.352   0.099   0.279
 5035TIP3    H123232   2.446   0.120   0.289
 5035TIP3    H223233   2.353   0.013   0.327
 5036TIP3   OH223234   3.250   0.083   0.173
 5036TIP3    H123235   3.197   0.013   0.217
 5036TIP3    H223236   3.334   0.036   0.163
 5037TIP3   OH223237   3.471   1.584   0.134
 5037TIP3    H123238   3.419   1.536   0.068
 5037TIP3    H223239   3.455   1.677   0.112
 5038TIP3   OH223240   4.245   1.622   0.071
 5038TIP3    H123241   4.227   1.581  -0.015
 5038TIP3    H223242   4.218   1.550   0.130
 5039TIP3   OH223243   4.128   1.099  -0.028
 5039TIP3    H123244   4.173   1.102   0.059
 5039TIP3    H223245   4.039   1.075   0.000
 5040TIP3   OH223246   3.852   1.745   0.135
 5040TIP3    H123247   3.905   1.676   0.178
 5040TIP3    H223248   3.792   1.693   0.077
 5041TIP3   OH223249   4.450   1.683   0.265
 5041TIP3    H123250   4.454   1.610   0.328
 5041TIP3    H223251   4.386   1.654   0.197
 5042TIP3   OH223252   3.907   1.152   0.207
 5042TIP3    H123253   3.888   1.068   0.253
 5042TIP3    H223254   3.825   1.168   0.158
 5043TIP3   OH223255   4.014   0.839   0.086
 5043TIP3    H123256   3.965   0.758   0.102
 5043TIP3    H223257   4.015   0.880   0.173
 5044TIP3   OH223258   4.273   0.673   0.159
 5044TIP3    H123259   4.199   0.619   0.127
 5044TIP3    H223260   4.319   0.687   0.074
 5045TIP3   OH223261   4.053   0.384   0.125
 5045TIP3    H123262   4.069   0.292   0.092
 5045TIP3    H223263   4.067   0.370   0.219
 5046TIP3   OH223264   3.832   0.520   0.177
 5046TIP3    H123265   3.917   0.474   0.160
 5046TIP3    H223266   3.774   0.441   0.183
 5047TIP3   OH223267   4.053   1.428   0.156
 5047TIP3    H123268   4.048   1.456   0.064
 5047TIP3    H223269   3.985   1.359   0.157
 5048TIP3   OH223270   4.088   0.132   0.080
 5048TIP3    H123271   4.100   0.059   0.015
 5048TIP3    H223272   4.159   0.113   0.143
 5049TIP3   OH223273   4.276   0.097   0.265
 5049TIP3    H123274   4.344   0.129   0.204
 5049TIP3    H223275   4.286   0.001   0.253
 5050TIP3   OH223276   0.479   3.484   0.036
 5050TIP3    H123277   0.494   3.438  -0.048
 5050TIP3    H223278   0.393   3.446   0.062
 5051TIP3   OH223279   1.580   2.518   0.056
 5051TIP3    H123280   1.622   2.524  -0.033
 5051TIP3    H223281   1.559   2.424   0.057
 5052TIP3   OH223282   1.035   2.580   0.131
 5052TIP3    H123283   0.997   2.491   0.115
 5052TIP3    H223284   1.109   2.558   0.189
 5053TIP3   OH223285   1.575   3.761   0.196
 5053TIP3    H123286   1.594   3.771   0.101
 5053TIP3    H223287   1.657   3.797   0.235
 5054TIP3   OH223288   0.325   3.018  -0.008
 5054TIP3    H123289   0.398   2.993   0.053
 5054TIP3    H223290   0.256   3.041   0.056
 5055TIP3   OH223291   0.812   2.729   0.091
 5055TIP3    H123292   0.859   2.699   0.012
 5055TIP3    H223293   0.844   2.663   0.155
 5056TIP3   OH223294   0.141   3.587   0.076
 5056TIP3    H123295   0.144   3.574   0.172
 5056TIP3    H223296   0.045   3.604   0.066
 5057TIP3   OH223297   0.606   3.531   0.276
 5057TIP3    H123298   0.683   3.472   0.276
 5057TIP3    H223299   0.572   3.520   0.184
 5058TIP3   OH223300   1.208   3.400   0.129
 5058TIP3    H123301   1.217   3.307   0.103
 5058TIP3    H223302   1.280   3.408   0.195
 5059TIP3   OH223303   0.084   2.995   0.153
 5059TIP3    H123304   0.139   2.923   0.187
 5059TIP3    H223305   0.019   2.938   0.104
 5060TIP3   OH223306   0.775   2.999   0.055
 5060TIP3    H123307   0.717   2.994  -0.023
 5060TIP3    H223308   0.784   2.904   0.079
 5061TIP3   OH223309   0.218   2.657   0.105
 5061TIP3    H123310   0.254   2.573   0.073
 5061TIP3    H223311   0.244   2.656   0.198
 5062TIP3   OH223312   1.137   2.891   0.223
 5062TIP3    H123313   1.167   2.865   0.134
 5062TIP3    H223314   1.137   2.806   0.270
 5063TIP3   OH223315   1.315   2.473   0.296
 5063TIP3    H123316   1.261   2.421   0.234
 5063TIP3    H223317   1.402   2.473   0.253
 5064TIP3   OH223318   1.484   2.785   0.065
 5064TIP3    H123319   1.445   2.788  -0.023
 5064TIP3    H223320   1.510   2.691   0.067
 5065TIP3   OH223321   0.522   2.475   0.155
 5065TIP3    H123322   0.443   2.417   0.164
 5065TIP3    H223323   0.523   2.485   0.058
 5066TIP3   OH223324   0.906   2.338   0.088
 5066TIP3    H123325   0.915   2.275   0.162
 5066TIP3    H223326   0.815   2.368   0.101
 5067TIP3   OH223327   1.183   2.323   0.091
 5067TIP3    H123328   1.094   2.298   0.059
 5067TIP3    H223329   1.222   2.235   0.113
 5068TIP3   OH223330   1.300   2.116   0.188
 5068TIP3    H123331   1.305   2.018   0.196
 5068TIP3    H223332   1.304   2.145   0.280
 5069TIP3   OH223333   0.314   2.299   0.179
 5069TIP3    H123334   0.319   2.210   0.138
 5069TIP3    H223335   0.279   2.273   0.268
 5070TIP3   OH223336   0.758   1.885   0.074
 5070TIP3    H123337   0.818   1.808   0.089
 5070TIP3    H223338   0.718   1.851  -0.009
 5071TIP3   OH223339   0.821   2.118   0.249
 5071TIP3    H123340   0.802   2.046   0.186
 5071TIP3    H223341   0.732   2.156   0.268
 5072TIP3   OH223342   1.581   3.142   0.236
 5072TIP3    H123343   1.501   3.152   0.289
 5072TIP3    H223344   1.643   3.202   0.283
 5073TIP3   OH223345   1.858   2.622   0.137
 5073TIP3    H123346   1.761   2.624   0.137
 5073TIP3    H223347   1.873   2.534   0.177
 5074TIP3   OH223348   0.042   2.396   0.174
 5074TIP3    H123349   0.126   2.355   0.145
 5074TIP3    H223350   0.018   2.336   0.247
 5075TIP3   OH223351   1.841   1.930   0.269
 5075TIP3    H123352   1.911   1.872   0.232
 5075TIP3    H223353   1.832   2.004   0.205
 5076TIP3   OH223354   1.794   2.166   0.101
 5076TIP3    H123355   1.700   2.155   0.080
 5076TIP3    H223356   1.831   2.170   0.011
 5077TIP3   OH223357   0.255   3.315   0.101
 5077TIP3    H123358   0.160   3.321   0.078
 5077TIP3    H223359   0.257   3.334   0.195
 5078TIP3   OH223360   0.881   3.528   0.081
 5078TIP3    H123361   0.928   3.496   0.159
 5078TIP3    H223362   0.954   3.551   0.021
 5079TIP3   OH223363   0.318   2.018   0.125
 5079TIP3    H123364   0.285   1.932   0.096
 5079TIP3    H223365   0.401   1.993   0.170
 5080TIP3   OH223366   0.564   1.929   0.242
 5080TIP3    H123367   0.645   1.918   0.186
 5080TIP3    H223368   0.571   1.845   0.291
 5081TIP3   OH223369   1.305   1.853   0.236
 5081TIP3    H123370   1.288   1.823   0.327
 5081TIP3    H223371   1.402   1.864   0.237
 5082TIP3   OH223372   1.575   3.442   0.086
 5082TIP3    H123373   1.623   3.406   0.010
 5082TIP3    H223374   1.551   3.532   0.062
 5083TIP3   OH223375   2.352   3.481   0.051
 5083TIP3    H123376   2.403   3.397   0.042
 5083TIP3    H223377   2.273   3.446   0.096
 5084TIP3   OH223378   3.462   2.488   0.045
 5084TIP3    H123379   3.505   2.507  -0.041
 5084TIP3    H223380   3.458   2.391   0.037
 5085TIP3   OH223381   2.949   2.578   0.098
 5085TIP3    H123382   2.909   2.491   0.081
 5085TIP3    H223383   3.010   2.556   0.169
 5086TIP3   OH223384   3.479   3.763   0.198
 5086TIP3    H123385   3.506   3.769   0.105
 5086TIP3    H223386   3.553   3.806   0.242
 5087TIP3   OH223387   2.204   3.089   0.024
 5087TIP3    H123388   2.273   3.044   0.077
 5087TIP3    H223389   2.124   3.059   0.071
 5088TIP3   OH223390   2.738   2.740   0.096
 5088TIP3    H123391   2.693   2.654   0.101
 5088TIP3    H223392   2.832   2.713   0.089
 5089TIP3   OH223393   1.965   3.600   0.116
 5089TIP3    H123394   2.027   3.536   0.154
 5089TIP3    H223395   1.905   3.543   0.064
 5090TIP3   OH223396   2.554   3.535   0.224
 5090TIP3    H123397   2.606   3.452   0.237
 5090TIP3    H223398   2.495   3.514   0.149
 5091TIP3   OH223399   3.121   3.381   0.101
 5091TIP3    H123400   3.045   3.322   0.082
 5091TIP3    H223401   3.174   3.326   0.160
 5092TIP3   OH223402   2.004   3.039   0.224
 5092TIP3    H123403   2.009   2.953   0.272
 5092TIP3    H223404   1.913   3.031   0.192
 5093TIP3   OH223405   2.643   3.000   0.139
 5093TIP3    H123406   2.573   2.981   0.073
 5093TIP3    H223407   2.686   2.911   0.143
 5094TIP3   OH223408   2.139   2.724   0.128
 5094TIP3    H123409   2.064   2.663   0.134
 5094TIP3    H223410   2.116   2.786   0.199
 5095TIP3   OH223411   3.019   2.855   0.205
 5095TIP3    H123412   3.085   2.834   0.138
 5095TIP3    H223413   3.032   2.783   0.270
 5096TIP3   OH223414   3.167   2.452   0.293
 5096TIP3    H123415   3.142   2.399   0.215
 5096TIP3    H223416   3.247   2.495   0.259
 5097TIP3   OH223417   3.334   2.811   0.080
 5097TIP3    H123418   3.289   2.801  -0.007
 5097TIP3    H223419   3.401   2.741   0.074
 5098TIP3   OH223420   2.394   2.493   0.204
 5098TIP3    H123421   2.301   2.462   0.195
 5098TIP3    H223422   2.415   2.497   0.108
 5099TIP3   OH223423   2.775   2.343   0.088
 5099TIP3    H123424   2.773   2.291   0.170
 5099TIP3    H223425   2.688   2.386   0.090
 5100TIP3   OH223426   3.079   2.317   0.058
 5100TIP3    H123427   2.988   2.297   0.029
 5100TIP3    H223428   3.106   2.232   0.099
 5101TIP3   OH223429   3.174   2.110   0.203
 5101TIP3    H123430   3.188   2.013   0.207
 5101TIP3    H223431   3.198   2.136   0.293
 5102TIP3   OH223432   2.181   2.308   0.164
 5102TIP3    H123433   2.208   2.227   0.119
 5102TIP3    H223434   2.176   2.275   0.257
 5103TIP3   OH223435   2.650   1.899   0.051
 5103TIP3    H123436   2.710   1.822   0.063
 5103TIP3    H223437   2.629   1.882  -0.043
 5104TIP3   OH223438   2.690   2.066   0.272
 5104TIP3    H123439   2.678   2.017   0.188
 5104TIP3    H223440   2.611   2.125   0.270
 5105TIP3   OH223441   3.491   3.146   0.257
 5105TIP3    H123442   3.416   3.162   0.316
 5105TIP3    H223443   3.558   3.206   0.297
 5106TIP3   OH223444   3.674   2.581   0.170
 5106TIP3    H123445   3.597   2.548   0.120
 5106TIP3    H223446   3.729   2.499   0.177
 5107TIP3   OH223447   1.913   2.376   0.244
 5107TIP3    H123448   2.002   2.352   0.211
 5107TIP3    H223449   1.858   2.299   0.218
 5108TIP3   OH223450   3.749   1.958   0.283
 5108TIP3    H123451   3.779   1.887   0.223
 5108TIP3    H223452   3.720   2.029   0.223
 5109TIP3   OH223453   3.657   2.160   0.107
 5109TIP3    H123454   3.568   2.140   0.073
 5109TIP3    H223455   3.692   2.213   0.033
 5110TIP3   OH223456   2.144   3.324   0.133
 5110TIP3    H123457   2.056   3.302   0.099
 5110TIP3    H223458   2.190   3.241   0.107
 5111TIP3   OH223459   2.802   3.524   0.073
 5111TIP3    H123460   2.854   3.493   0.148
 5111TIP3    H223461   2.864   3.582   0.024
 5112TIP3   OH223462   2.181   1.989   0.097
 5112TIP3    H123463   2.128   1.909   0.118
 5112TIP3    H223464   2.267   1.968   0.140
 5113TIP3   OH223465   2.434   1.951   0.196
 5113TIP3    H123466   2.511   1.907   0.153
 5113TIP3    H223467   2.414   1.882   0.262
 5114TIP3   OH223468   3.211   1.846   0.229
 5114TIP3    H123469   3.190   1.817   0.320
 5114TIP3    H223470   3.309   1.855   0.232
 5115TIP3   OH223471   3.479   3.456   0.114
 5115TIP3    H123472   3.438   3.383   0.065
 5115TIP3    H223473   3.442   3.536   0.073
 5116TIP3   OH223474   4.238   3.481   0.049
 5116TIP3    H123475   4.210   3.429  -0.028
 5116TIP3    H223476   4.211   3.416   0.118
 5117TIP3   OH223477   4.220   3.025   0.072
 5117TIP3    H123478   4.231   3.038   0.168
 5117TIP3    H223479   4.156   2.952   0.073
 5118TIP3   OH223480   3.865   3.603   0.127
 5118TIP3    H123481   3.858   3.556   0.212
 5118TIP3    H223482   3.793   3.561   0.075
 5119TIP3   OH223483   4.432   3.550   0.263
 5119TIP3    H123484   4.442   3.463   0.305
 5119TIP3    H223485   4.376   3.527   0.187
 5120TIP3   OH223486   3.881   3.018   0.141
 5120TIP3    H123487   3.838   2.934   0.114
 5120TIP3    H223488   3.852   3.077   0.069
 5121TIP3   OH223489   4.086   2.761   0.098
 5121TIP3    H123490   4.136   2.680   0.122
 5121TIP3    H223491   4.048   2.786   0.184
 5122TIP3   OH223492   4.255   2.543   0.183
 5122TIP3    H123493   4.202   2.464   0.161
 5122TIP3    H223494   4.317   2.546   0.108
 5123TIP3   OH223495   4.080   2.302   0.144
 5123TIP3    H123496   4.099   2.224   0.089
 5123TIP3    H223497   4.087   2.262   0.234
 5124TIP3   OH223498   3.817   2.369   0.191
 5124TIP3    H123499   3.914   2.356   0.184
 5124TIP3    H223500   3.782   2.278   0.188
 5125TIP3   OH223501   4.059   3.316   0.169
 5125TIP3    H123502   3.999   3.379   0.126
 5125TIP3    H223503   3.999   3.253   0.212
 5126TIP3   OH223504   4.036   2.032   0.090
 5126TIP3    H123505   4.008   1.940   0.104
 5126TIP3    H223506   4.112   2.035   0.151
 5127TIP3   OH223507   4.226   1.948   0.254
 5127TIP3    H123508   4.300   1.904   0.208
 5127TIP3    H223509   4.196   1.873   0.311
 5128TIP3   OH223510   1.519   4.285   0.084
 5128TIP3    H123511   1.548   4.369   0.043
 5128TIP3    H223512   1.534   4.222   0.010
 5129TIP3   OH223513   1.054   4.463   0.063
 5129TIP3    H123514   1.037   4.385   0.116
 5129TIP3    H223515   1.146   4.452   0.035
 5130TIP3   OH223516   1.295   4.314   0.289
 5130TIP3    H123517   1.263   4.267   0.209
 5130TIP3    H223518   1.391   4.302   0.281
 5131TIP3   OH223519   0.512   4.308   0.170
 5131TIP3    H123520   0.421   4.270   0.164
 5131TIP3    H223521   0.518   4.356   0.085
 5132TIP3   OH223522   0.889   4.189   0.095
 5132TIP3    H123523   0.845   4.185   0.181
 5132TIP3    H223524   0.826   4.239   0.042
 5133TIP3   OH223525   1.170   4.183   0.060
 5133TIP3    H123526   1.073   4.176   0.066
 5133TIP3    H223527   1.201   4.102   0.107
 5134TIP3   OH223528   1.290   3.990   0.197
 5134TIP3    H123529   1.304   3.894   0.211
 5134TIP3    H223530   1.277   4.021   0.287
 5135TIP3   OH223531   0.290   4.172   0.184
 5135TIP3    H123532   0.309   4.085   0.143
 5135TIP3    H223533   0.259   4.149   0.273
 5136TIP3   OH223534   0.719   3.749   0.075
 5136TIP3    H123535   0.769   3.666   0.093
 5136TIP3    H223536   0.716   3.743  -0.022
 5137TIP3   OH223537   0.829   3.922   0.267
 5137TIP3    H123538   0.795   3.872   0.190
 5137TIP3    H223539   0.753   3.977   0.292
 5138TIP3   OH223540   0.058   4.290   0.092
 5138TIP3    H123541   0.132   4.267   0.153
 5138TIP3    H223542  -0.021   4.269   0.144
 5139TIP3   OH223543   1.860   3.826   0.267
 5139TIP3    H123544   1.914   3.752   0.234
 5139TIP3    H223545   1.852   3.884   0.188
 5140TIP3   OH223546   1.747   4.022   0.104
 5140TIP3    H123547   1.657   4.004   0.075
 5140TIP3    H223548   1.788   4.057   0.023
 5141TIP3   OH223549   0.345   3.940   0.079
 5141TIP3    H123550   0.289   3.862   0.073
 5141TIP3    H223551   0.415   3.910   0.141
 5142TIP3   OH223552   0.527   3.826   0.239
 5142TIP3    H123553   0.603   3.782   0.192
 5142TIP3    H223554   0.474   3.747   0.261
 5143TIP3   OH223555   1.251   3.707   0.192
 5143TIP3    H123556   1.233   3.667   0.279
 5143TIP3    H223557   1.342   3.677   0.178
 5144TIP3   OH223558   3.391   4.288   0.069
 5144TIP3    H123559   3.423   4.363   0.017
 5144TIP3    H223560   3.415   4.213   0.011
 5145TIP3   OH223561   2.932   4.463   0.100
 5145TIP3    H123562   2.970   4.374   0.094
 5145TIP3    H223563   3.003   4.518   0.066
 5146TIP3   OH223564   3.191   4.336   0.296
 5146TIP3    H123565   3.145   4.296   0.218
 5146TIP3    H223566   3.279   4.294   0.286
 5147TIP3   OH223567   2.403   4.288   0.170
 5147TIP3    H123568   2.308   4.269   0.157
 5147TIP3    H223569   2.417   4.357   0.103
 5148TIP3   OH223570   2.747   4.174   0.103
 5148TIP3    H123571   2.738   4.198   0.196
 5148TIP3    H223572   2.713   4.253   0.059
 5149TIP3   OH223573   3.057   4.209   0.073
 5149TIP3    H123574   2.970   4.174   0.053
 5149TIP3    H223575   3.105   4.129   0.101
 5150TIP3   OH223576   3.214   4.017   0.207
 5150TIP3    H123577   3.219   3.919   0.219
 5150TIP3    H223578   3.182   4.045   0.293
 5151TIP3   OH223579   2.150   4.181   0.154
 5151TIP3    H123580   2.177   4.087   0.153
 5151TIP3    H223581   2.141   4.198   0.251
 5152TIP3   OH223582   2.653   3.754   0.059
 5152TIP3    H123583   2.688   3.665   0.082
 5152TIP3    H223584   2.629   3.736  -0.034
 5153TIP3   OH223585   2.732   3.924   0.279
 5153TIP3    H123586   2.717   3.873   0.197
 5153TIP3    H223587   2.664   3.994   0.273
 5154TIP3   OH223588   1.892   4.222   0.236
 5154TIP3    H123589   1.973   4.237   0.185
 5154TIP3    H223590   1.851   4.143   0.195
 5155TIP3   OH223591   3.791   3.862   0.287
 5155TIP3    H123592   3.844   3.796   0.241
 5155TIP3    H223593   3.765   3.925   0.216
 5156TIP3   OH223594   3.678   4.022   0.100
 5156TIP3    H123595   3.591   3.996   0.066
 5156TIP3    H223596   3.719   4.060   0.019
 5157TIP3   OH223597   2.190   3.902   0.113
 5157TIP3    H123598   2.128   3.852   0.168
 5157TIP3    H223599   2.277   3.872   0.148
 5158TIP3   OH223600   2.451   3.853   0.206
 5158TIP3    H123601   2.534   3.821   0.163
 5158TIP3    H223602   2.420   3.767   0.239
 5159TIP3   OH223603   3.199   3.743   0.230
 5159TIP3    H123604   3.160   3.687   0.298
 5159TIP3    H223605   3.292   3.713   0.230
 5160TIP3   OH223606   4.272   4.314   0.166
 5160TIP3    H123607   4.181   4.273   0.164
 5160TIP3    H223608   4.270   4.363   0.080
 5161TIP3   OH223609   4.050   4.171   0.177
 5161TIP3    H123610   4.073   4.091   0.126
 5161TIP3    H223611   4.054   4.132   0.267
 5162TIP3   OH223612   3.801   4.220   0.271
 5162TIP3    H123613   3.890   4.225   0.231
 5162TIP3    H223614   3.766   4.142   0.224
 5163TIP3   OH223615   4.052   3.902   0.085
 5163TIP3    H123616   4.050   3.810   0.054
 5163TIP3    H223617   4.132   3.899   0.142
 5164TIP3   OH223618   4.234   3.823   0.269
 5164TIP3    H123619   4.312   3.788   0.223
 5164TIP3    H223620   4.195   3.739   0.304
 5165TIP3   OH223621   0.827   1.392   0.292
 5165TIP3    H123622   0.901   1.327   0.290
 5165TIP3    H223623   0.781   1.368   0.375
 5166TIP3   OH223624   1.040   1.576   0.306
 5166TIP3    H123625   0.967   1.512   0.315
 5166TIP3    H223626   1.100   1.529   0.245
 5167TIP3   OH223627   0.498   1.086   0.207
 5167TIP3    H123628   0.501   1.076   0.304
 5167TIP3    H223629   0.593   1.088   0.187
 5168TIP3   OH223630   1.060   1.258   0.322
 5168TIP3    H123631   1.086   1.256   0.416
 5168TIP3    H223632   1.084   1.169   0.288
 5169TIP3   OH223633   1.717   1.037   0.216
 5169TIP3    H123634   1.666   0.982   0.153
 5169TIP3    H223635   1.655   1.113   0.220
 5170TIP3   OH223636   1.637   0.316   0.321
 5170TIP3    H123637   1.650   0.336   0.415
 5170TIP3    H223638   1.539   0.323   0.308
 5171TIP3   OH223639   2.677   1.410   0.289
 5171TIP3    H123640   2.700   1.338   0.230
 5171TIP3    H223641   2.626   1.365   0.358
 5172TIP3   OH223642   2.899   1.577   0.314
 5172TIP3    H123643   2.815   1.533   0.338
 5172TIP3    H223644   2.956   1.498   0.314
 5173TIP3   OH223645   2.392   1.136   0.222
 5173TIP3    H123646   2.378   1.121   0.318
 5173TIP3    H223647   2.485   1.112   0.212
 5174TIP3   OH223648   2.975   1.298   0.340
 5174TIP3    H123649   2.971   1.290   0.438
 5174TIP3    H223650   2.975   1.204   0.314
 5175TIP3   OH223651   3.577   1.064   0.168
 5175TIP3    H123652   3.510   1.010   0.123
 5175TIP3    H223653   3.519   1.133   0.208
 5176TIP3   OH223654   3.524   0.381   0.300
 5176TIP3    H123655   3.552   0.334   0.382
 5176TIP3    H223656   3.427   0.366   0.294
 5177TIP3   OH223657   4.310   1.060   0.200
 5177TIP3    H123658   4.293   1.117   0.277
 5177TIP3    H223659   4.394   1.018   0.224
 5178TIP3   OH223660   0.823   3.294   0.293
 5178TIP3    H123661   0.890   3.223   0.285
 5178TIP3    H223662   0.774   3.263   0.371
 5179TIP3   OH223663   1.024   3.472   0.320
 5179TIP3    H123664   0.959   3.399   0.323
 5179TIP3    H223665   1.087   3.440   0.253
 5180TIP3   OH223666   0.494   2.986   0.227
 5180TIP3    H123667   0.503   2.977   0.324
 5180TIP3    H223668   0.587   2.995   0.204
 5181TIP3   OH223669   1.026   3.114   0.339
 5181TIP3    H123670   1.069   3.108   0.425
 5181TIP3    H223671   1.065   3.038   0.290
 5182TIP3   OH223672   1.742   2.926   0.224
 5182TIP3    H123673   1.707   2.881   0.145
 5182TIP3    H223674   1.683   3.005   0.221
 5183TIP3   OH223675   1.600   2.257   0.320
 5183TIP3    H123676   1.667   2.202   0.366
 5183TIP3    H223677   1.522   2.243   0.374
 5184TIP3   OH223678   2.685   3.306   0.288
 5184TIP3    H123679   2.757   3.242   0.283
 5184TIP3    H223680   2.631   3.273   0.363
   4.48999   4.48999  12.29200   0.00000   0.00000   0.00000   0.00000   0.00000   0.00000
